default_name
124594
  64.9340858  51.0220183  48.0791761  65.2627950  51.9077092  48.4363915
  64.0155935  50.8400290  48.4577948  65.0820585  50.9997893  47.0803220
  65.7877503  49.9715981  48.6182681  65.1888496  49.2696198  49.1984780
  66.4742531  49.2082172  47.4855733  65.7058825  48.7829844  46.8399087
  67.0869281  49.9031421  46.9112835  67.3590763  48.0851677  47.9901382
  68.5728201  48.0964778  47.7877206  66.7514413  47.1039369  48.6471313
  67.2921183  46.3298754  49.0057355  65.7514399  47.1362661  48.7851631
  66.8286837  50.5576426  49.5670581  67.9068485  50.9727111  49.1441718
  66.4942685  50.5874925  50.8539336  65.5879398  50.2620173  51.1584553
  67.4052048  51.1261252  51.8527123  67.7056308  52.1375027  51.5789261
  66.7142828  51.1738310  53.2151193  65.7330387  51.5929033  52.9923241
  66.5992183  50.1501479  53.5713961  67.3938372  52.0150420  54.2945130
  68.4461551  51.7365681  54.3509060  67.2787275  53.4925537  53.9678326
  66.2266252  53.7718949  53.9117257  67.7681508  54.0767063  54.7471472
  67.7586104  53.6917992  53.0096499  66.7926877  51.7178652  55.6555523
  66.9291604  50.6623819  55.8909874  67.2882305  52.3255131  56.4127198
  65.7281959  51.9519065  55.6421018  68.6696476  50.2789964  51.9318284
  68.6111297  49.0470955  51.9390924  69.8194941  50.9462426  51.9925039
  69.8355314  51.9560993  51.9981321  71.0867783  50.2374295  52.0141510
  71.0993489  49.4809879  51.2294618  72.2444041  51.2018109  51.7798602
  73.1479378  50.6228963  51.5885911  72.0161480  51.8163885  50.9090597
  72.4481931  52.0358265  52.9052588  73.1804823  52.6322494  52.7331190
  71.2723173  49.5214502  53.3486445  70.6617797  49.8908430  54.3542816
  72.1132579  48.4843507  53.3822520  72.8109362  47.8061559  52.3373492
  73.7369853  48.3439725  52.1341582  72.1856132  47.8102614  51.4445708
  73.0540372  46.4096681  52.8646347  73.9219172  45.9591015  52.3831028
  72.1808129  45.7774923  52.7035929  73.2982825  46.6347583  54.3619555
  74.3132749  46.9409651  54.6151881  73.0280156  45.7554998  54.9467288
  72.3287147  47.7689646  54.6525383  71.3791292  47.3155377  54.9367737
  72.8190005  48.6631926  55.7781875  72.3489031  48.5411659  56.9188890
  73.7469269  49.5770172  55.4850388  74.1399472  49.6513944  54.5576217
  74.2632272  50.4558489  56.5268060  74.6031648  49.8649441  57.3773194
  75.4418376  51.2679794  55.9945969  76.1405467  50.5180515  55.6237694
  75.0988443  51.8860419  55.1648654  76.1419662  52.1485108  57.0301772
  75.4087389  52.8194995  57.4776732  76.7755566  51.2961532  58.1147429
  77.5092825  50.6251815  57.6680416  77.2688908  51.9406522  58.8423026
  76.0041016  50.7097066  58.6137801  77.1817647  53.0296643  56.3668458
  76.6987416  53.6698156  55.6286084  77.6686202  53.6484826  57.1205943
  77.9267112  52.4052304  55.8736561  73.1734484  51.3791483  57.0539106
  73.0742788  51.6019614  58.2654289  72.3514368  51.9342906  56.1611536
  72.5026200  51.8360523  55.1673769  71.2401148  52.7635559  56.6127634
  71.6113753  53.5732173  57.2410254  70.5136251  53.3701528  55.4132393
  70.3056702  52.5582164  54.7163797  69.5739127  53.7837210  55.7793021
  71.3013065  54.4557375  54.7038770  71.2186189  55.3692464  55.2927445
  72.3444566  54.1419382  54.6655771  70.8005163  54.7144887  53.2985518
  70.8235177  53.7748518  52.4762097  70.3833348  55.8568499  53.0148700
  70.2715087  51.9673110  57.4798304  69.7870183  52.4703806  58.4969828
  69.9638434  50.7288013  57.0876086  70.3153817  50.3468649  56.2212111
  69.0554620  49.9103130  57.8873094  68.1065312  50.4290380  58.0235218
  68.7891380  48.5835151  57.1795229  68.3124208  48.7873316  56.2207222
  69.7405208  48.0787469  57.0116539  67.9462070  47.7542459  57.9585833
  67.7930357  46.9278062  57.4947560  69.6208471  49.6646025  59.2789800
  68.9016933  49.7687149  60.2859728  70.9204357  49.3730280  59.3603714
  71.4963928  49.2591707  58.5385385  71.5271008  49.1474140  60.6656644
  70.9549062  48.4047994  61.2217365  72.9541576  48.6340350  60.4923647
  72.8343544  47.6644707  60.0089481  73.4740813  49.3140993  59.8176115
  73.7681846  48.4667953  61.7721537  73.9698017  49.4512008  62.1945247
  73.0076817  47.6305494  62.7814985  72.8060898  46.6457709  62.3599883
  73.6040623  47.5222873  63.6874291  72.0650988  48.1212392  63.0241123
  75.1046977  47.8302539  61.4527653  75.6537125  48.4659157  60.7580594
  75.6808294  47.7137045  62.3706922  74.9428728  46.8523404  60.9993375
  71.5059207  50.4214477  61.4974118  71.2009047  50.3831601  62.6962931
  71.8286624  51.5622455  60.8846703  72.1248061  51.5862030  59.9193599
  71.8103578  52.8120181  61.6325897  72.4544839  52.7256105  62.5076523
  72.3235650  53.9544827  60.7600692  71.6832699  54.0593270  59.8842097
  72.3113883  54.8825556  61.3315872  73.3430377  53.7385580  60.4404583
  70.4049534  53.1092240  62.1328548  70.2250572  53.6118694  63.2468740
  69.3983056  52.8255338  61.3069969  69.5777206  52.4789516  60.3754443
  68.0160305  53.0656638  61.7003911  67.8826352  54.1106979  61.9800492
  67.0802993  52.7488869  60.5348215  67.3222440  53.3634034  59.6676817
  67.1604549  51.6954259  60.2666891  65.6467446  53.0006650  60.8487190
  64.7517598  52.1068069  61.3496541  65.1175214  51.0977219  61.5395638
  63.5269547  52.7046240  61.5123014  62.6941887  52.2539561  61.8637253
  63.6162337  54.0116704  61.1154223  62.6493062  55.0086887  61.0906917
  61.6428587  54.7674640  61.4327045  63.0264000  56.2394854  60.6346381
  62.2950202  57.0470563  60.6028143  64.3335341  56.4911590  60.2053402
  64.6225696  57.4770224  59.8411545  65.2945582  55.5025519  60.2294380
  66.2983894  55.7485244  59.8831417  64.9388190  54.2330845  60.6912844
  67.6519786  52.2406097  62.9258270  67.0520147  52.7516406  63.8807902
  68.0037776  50.9523801  62.9140336  68.4240471  50.5115697  62.1083296
  67.7181042  50.1277058  64.0833565  66.6543095  50.1762194  64.3159214
  68.0947306  48.6703840  63.8220970  69.1330514  48.6627327  63.4905389
  68.0135732  48.1435316  64.7728546  67.2297641  47.9807477  62.7877418
  66.2095365  47.9090701  63.1647018  67.2380820  48.5753023  61.8742114
  67.7239885  46.5884540  62.4628579  68.5205710  46.0116764  63.2041115
  67.2492310  46.0360972  61.3544404  67.5457245  45.1076577  61.0895005
  66.5933885  46.5464522  60.7804110  68.4531474  50.6514749  65.3086803
  67.8876670  50.6966098  66.4084911  69.7118680  51.0601905  65.1365612
  70.1744526  50.9685515  64.2434111  70.4824416  51.5742222  66.2660269
  70.5150346  50.8482209  67.0784056  71.9234125  51.8933549  65.8340834
  71.8965031  52.5642216  64.9754141  72.6800243  52.5533772  66.9657437
  72.7077569  51.8828772  67.8246742  73.6979932  52.7726856  66.6436510
  72.1802280  53.4807863  67.2454179  72.6386651  50.6266574  65.4121732
  72.1092378  50.1714308  64.5751682  73.6575031  50.8678538  65.1090345
  72.6647127  49.9278142  66.2482596  69.7937505  52.7938706  66.8640816
  69.6036128  52.8892425  68.0820450  69.3987377  53.7409956  66.0113582
  69.5810083  53.6599759  65.0212508  68.7465589  54.9521959  66.4978266
  69.3839566  55.4492049  67.2291305  68.4887057  55.9162098  65.3390558
  69.4595316  56.2045249  64.9359793  67.9292606  55.3683022  64.5808220
  67.7115194  57.1686805  65.7387665  66.7216965  56.8565861  66.0718559
  68.2405455  57.6412522  66.5663591  67.5710679  58.1641690  64.5905409
  67.0758672  59.0548582  64.9772553  68.5724875  58.4254393  64.2484940
  66.7676485  57.6026571  63.4255676  66.7726740  58.3398057  62.6226434
  67.2567715  56.6905101  63.0837406  65.3625990  57.2976513  63.8097295
  64.9090578  58.1428206  64.1260977  64.8675242  56.9288555  63.0103607
  65.3577083  56.6142927  64.5534339  67.4456556  54.6201457  67.2165736
  67.1926187  55.1058928  68.3268668  66.5962739  53.8009464  66.5902938
  66.8086979  53.4030016  65.6866261  65.2958658  53.5111819  67.1853772
  64.7542739  54.4404090  67.3623359  64.4677017  52.6346092  66.2511686
  65.0298059  51.7461597  65.9634263  63.5375274  52.3348821  66.7339103
  63.9956291  53.4426863  64.7194103  63.3278790  52.4082107  64.2165500
  65.4563209  52.8409468  68.5401750  64.8213691  53.2450325  69.5204280
  66.3052383  51.8152574  68.6241727  66.8009871  51.4558220  67.8209675
  66.4797584  51.1389827  69.9033749  65.5104001  50.8234007  70.2891879
  67.3648584  49.9060047  69.7405706  66.7499023  49.1814909  69.2067092
  68.2220830  50.1780335  69.1247245  67.8547702  49.2901852  71.0523658
  68.5033302  50.0074351  71.5553800  66.6884067  48.9422254  71.9575046
  66.0396026  48.2246151  71.4553218  67.0637522  48.5061183  72.8832623
  66.1225156  49.8455414  72.1852933  68.6753358  48.0573112  70.7723681
  69.5364654  48.3247230  70.1599580  69.0187518  47.6273729  71.7132824
  68.0650567  47.3269713  70.2410846  67.0648384  52.0887873  70.9387230
  66.6352222  52.0979894  72.0981134  68.0459371  52.9005281  70.5419759
  68.3748531  52.8805518  69.5872432  68.7004236  53.8011087  71.4781185
  69.0360875  53.2550187  72.3597164  69.9139686  54.4312819  70.8041063
  69.5991357  54.6032116  69.7748252  70.1419920  55.3859974  71.2780510
  71.1594831  53.5480832  70.8142319  70.8778480  52.5249939  70.5650920
  72.1590170  54.0573867  69.7984131  72.4414982  55.0803344  70.0471726
  73.0453734  53.4230936  69.8104701  71.7111050  54.0360746  68.8049238
  71.7766540  53.4873236  72.2026794  71.0521050  53.0755401  72.9052195
  72.6617391  52.8515501  72.1799279  72.0591337  54.4912664  72.5195438
  67.7647599  54.8895053  71.9797392  68.0018022  55.4457885  73.0571073
  66.7097030  55.2025562  71.2252088  66.5349861  54.7375970  70.3457850
  65.8088849  56.2766854  71.6308752  66.3494932  57.2223817  71.6696078
  64.6652202  56.4088841  70.6264626  65.1096212  56.5687033  69.6440854
  64.1179746  55.4662179  70.6281066  63.7116841  57.5478705  70.9416449
  63.1791957  57.3052801  71.8612681  64.2975689  58.4549485  71.0901388
  62.7119448  57.7695801  69.8222615  62.2332814  58.7373363  69.9720224
  63.2491286  57.7734038  68.8738321  61.6546182  56.6804715  69.8001753
  62.1044694  55.7777956  69.3867617  61.3392707  56.4914720  70.8263011
  60.4744451  57.0647745  68.9823197  60.7663692  57.2395316  68.0313518
  59.7978898  56.3149570  68.9944277  60.0572016  57.9009522  69.3654827
  65.2526269  56.0489270  73.0312441  65.0570529  57.0052179  73.7885450
  64.9932090  54.7965011  73.3978185  65.2330172  54.0313804  72.7836673
  64.3096967  54.4907288  74.6481037  63.7104131  55.3451350  74.9626643
  63.3839915  53.2849410  74.4641292  63.9823244  52.4629859  74.0710811
  63.0033193  53.0175906  75.4498840  62.2286286  53.5530485  73.5359331
  61.0697904  54.1577201  73.9976378  61.0067173  54.4365409  75.0494839
  60.0097129  54.4076398  73.1540107  59.1004739  54.8751276  73.5319545
  60.1018278  54.0556667  71.8275101  59.0492491  54.3080919  70.9788342
  58.3068725  54.7303312  71.4172296  61.2433528  53.4596116  71.3431777
  61.3174318  53.1853227  70.2908572  62.2969710  53.2095782  72.1965651
  63.2025460  52.7341576  71.8197241  65.2610178  54.2214579  75.8050719
  64.7958565  53.9463661  76.9147779  66.5695235  54.2903388  75.5849962
  66.9255111  54.4654996  74.6561847  67.5259018  54.0807071  76.6626071
  67.1824148  53.2747012  77.3110438  68.8900396  53.7021975  76.0955606
  69.2732168  54.5411007  75.5145995  69.5682187  53.4941403  76.9231386
  68.7937971  52.5608491  75.2673594  69.6624612  52.3416009  74.9224640
  67.6276758  55.3529316  77.4942524  67.9564448  56.4199613  76.9651706
  67.3429656  55.2470133  78.7915397  67.0342259  54.3739334  79.1946658
  67.4200726  56.4174312  79.6552627  66.9513880  57.2769069  79.1759554
  66.7036536  56.1450945  80.9790340  67.0316050  56.8776943  81.7164929
  65.1956398  56.2455195  80.8006124  64.8668619  55.5128532  80.0635881
  64.7027060  56.0487713  81.7526657  64.9357245  57.2469647  80.4576077
  67.0400785  54.8339432  81.4492025  66.5889349  54.6663418  82.2798526
  68.8525855  56.8456723  79.9355704  69.0574091  57.9302575  80.4912297
  69.8415009  56.0277114  79.5735698  69.6163216  55.1219871  79.1874907
  71.2435575  56.3684940  79.7608807  71.3488829  57.1380902  80.5255554
  72.0289154  55.1298278  80.2017552  73.0955298  55.3294705  80.0989126
  71.7148279  54.7927480  81.6477010  70.6483927  54.5925129  81.7512458
  72.2803945  53.9102311  81.9466950  71.9897803  55.6330495  82.2851923
  71.6773508  54.0203566  79.3678572  72.1695748  53.2438223  79.6441004
  71.8894348  56.9525480  78.5119838  73.0316719  57.4176125  78.5842218
  71.1932983  56.9419004  77.3788370  70.2776903  56.5161377  77.3567561
  71.7248542  57.4990010  76.1444362  72.7831210  57.2555446  76.0500984
  70.9807397  56.9155866  74.9441753  70.8793096  55.8394269  75.0845016
  69.9916805  57.3641724  74.8512629  71.6661599  57.1132089  73.6276034
  71.2303672  57.8732179  72.5834209  70.2874829  58.4025892  72.7206616
  72.1193897  57.7993867  71.5399225  72.0295052  58.2774661  70.6547895
  73.1529012  56.9742033  71.8969831  74.2821636  56.5945557  71.1845225
  74.4173836  56.9859785  70.1762555  75.1596751  55.7466530  71.7989269
  76.0561793  55.4250603  71.2688720  74.9353478  55.2788366  73.0970213
  75.6432858  54.6036492  73.5776930  73.8150453  55.6556181  73.8078989
  73.6859894  55.2628401  74.8164477  72.8991183  56.5225349  73.2056889
  71.5834929  59.0143015  76.1793977  70.4949247  59.5350795  76.4427846
  72.6799255  59.7227701  75.9161757  73.5353998  59.2339052  75.6941980
  72.7128364  61.1841633  75.9808047  71.6991893  61.5671112  76.0989975
  73.5560710  61.6609200  77.1632511  74.5350800  61.1906197  77.0712822
  73.6623325  62.7415671  77.0683281  72.9604401  61.3283330  78.5204606
  71.9869758  61.8123922  78.5989133  72.8347350  60.2476841  78.5875303
  73.8553737  61.8049756  79.6520819  74.8205818  61.3063006  79.5637896
  73.9930923  62.8818354  79.5545829  73.2472431  61.4935036  81.0083346
  72.2873392  62.0053084  81.0771886  73.0897475  60.4168335  81.0721773
  74.1239015  61.9328178  82.1255821  74.2696152  62.9305244  82.0668563
  73.6844181  61.7080343  83.0067329  75.0132702  61.4583638  82.0622107
  73.2665110  61.7264992  74.6709137  74.4542568  62.0571841  74.5725292
  72.4315744  61.8315178  73.6425374  71.0504659  61.4930699  73.5183987
  70.5354138  61.8751524  74.3997809  70.9763678  60.4057880  73.4977491
  70.5588750  62.1290255  72.2370784  70.2079274  63.1449492  72.4182801
  69.7542263  61.5403788  71.7964688  71.8011821  62.1177057  71.3377476
  71.8015016  62.9241304  70.6044140  71.9540903  61.1654356  70.8299088
  72.9060235  62.3453689  72.3565199  73.7632992  61.7506957  72.0410195
  73.3134527  63.8060889  72.4581444  72.8501777  64.5535834  73.3214938
  74.1988966  64.2086662  71.5526613  74.6120480  63.5587900  70.8991582
  74.6370839  65.5952552  71.5166104  75.0020558  65.8945207  72.4991249
  75.7673821  65.7684337  70.5020651  76.2247378  66.7147404  70.7909052
  76.4796471  64.9583956  70.6589626  75.3741286  65.8224158  69.0237229
  74.4182231  65.3144104  68.8961454  75.2511581  67.2554703  68.5492156
  76.2068679  67.7640257  68.6760584  74.9709086  67.2672080  67.4959240
  74.4870730  67.7679799  69.1336884  76.3795220  65.0709099  68.1697282
  76.4171203  64.0281188  68.4848037  76.0790915  65.1231305  67.1232504
  77.3652162  65.5211592  68.2871224  73.4622033  66.5052679  71.1754805
  72.5653612  66.1407569  70.4112076  73.4724460  67.6993490  71.7543540
  74.2601151  67.9775152  72.3220690  72.3527436  68.6229838  71.6263293
  71.4549618  68.1914313  72.0688781  72.6780067  69.9247723  72.3541834
  72.8227849  69.7031040  73.4115394  73.5981753  70.3376178  71.9407245
  71.5795385  70.9618291  72.2224764  70.5607597  70.7302881  71.5740286
  71.7854387  72.1200077  72.8392328  71.0875301  72.8481390  72.7858644
  72.6389701  72.2672466  73.3587573  72.0581344  68.8970254  70.1537463
  72.9592700  69.3319107  69.4238762  70.8249124  68.6866423  69.6821612
  69.6760781  68.1325489  70.3149497  69.1424243  68.9332229  70.8270387
  70.0051009  67.3918079  71.0437472  68.8667265  67.5191104  69.1946242
  67.8111806  67.4685640  69.4617699  69.2293604  66.5188422  68.9578506
  69.1023022  68.4790372  68.0211807  68.4753897  69.3707082  68.0195573
  68.9996172  67.9615895  67.0673446  70.5546985  68.8688033  68.2461682
  71.1685116  68.1446437  67.7105148  70.8518121  70.2639934  67.7283412
  70.9361512  70.4427297  66.5074864  71.0058032  71.2576981  68.6011342
  70.8456094  71.0879276  69.5837914  71.3400661  72.6118957  68.1795440
  71.0006154  72.7765936  67.1569263  70.6589166  73.6354312  69.0919756
  70.4089952  73.1536090  70.0372195  71.3519811  74.4564857  69.2753634
  69.3912907  74.1986477  68.4861483  69.3818350  74.6291702  67.3341214
  68.3123000  74.1974643  69.2585878  67.4400880  74.5621053  68.9030840
  68.3682345  73.8319267  70.1984571  72.8384719  72.8788946  68.1512839
  73.2423973  74.0110362  67.8671612  73.6710148  71.8795461  68.4316105
  73.3254915  70.9677704  68.6950076  75.1094175  72.0916919  68.4094135
  75.3740252  72.9073096  69.0823546  75.8397539  70.8290857  68.8620573
  75.4659786  70.5413257  69.8446994  75.6353977  70.0311268  68.1481945
  77.2353532  71.0503199  68.9348933  77.6725223  70.2448675  69.2207768
  75.5553354  72.4904705  67.0072741  74.9474074  72.1063248  66.0047889
  76.6327562  73.2763985  66.9428172  77.1585794  73.5136948  67.7718526
  77.0385047  73.8700600  65.6724050  76.2458311  74.5138483  65.2912169
  78.2987624  74.7102811  65.8660545  78.5512832  75.1981049  64.9245874
  78.1425162  75.4660437  66.6358012  79.5013123  73.9246364  66.2763291
  79.7617221  73.4076553  67.5094173  79.0112622  73.5773610  68.2814987
  80.9701562  72.7561864  67.5053873  81.3874482  72.2829021  68.2940374
  81.5173436  72.8499250  66.2540065  82.7176497  72.3528557  65.7627018
  83.3646084  71.7934760  66.4384513  83.0129737  72.5994039  64.4515372
  83.9463574  72.2249577  64.0311981  82.1423151  73.3243809  63.6310203
  82.3880504  73.5157673  62.5864703  80.9482176  73.8186364  64.1170776
  80.3028373  74.3740208  63.4365388  80.6195958  73.5816596  65.4536519
  77.2674120  72.8181597  64.5958962  77.0707228  73.0991559  63.4084786
  77.6867081  71.6104290  64.9802128  77.8645855  71.3988770  65.9516575
  77.9537773  70.5755011  63.9866353  78.7785595  70.8823160  63.3434415
  78.3333428  69.2648717  64.6760311  77.4804009  69.0494569  65.3196039
  78.4103093  68.4967973  63.9064611  79.6112211  69.2771014  65.5121461
  79.5780036  70.1210550  66.2011598  79.7377768  67.9883145  66.2984851
  79.7715241  67.1438848  65.6100824  80.6532015  68.0112260  66.8897324
  78.8797846  67.8812858  66.9621827  80.8215606  69.4776631  64.6237379
  80.7330272  70.4279915  64.0972996  81.7242651  69.4840236  65.2346269
  80.8795869  68.6655039  63.8990798  76.7500553  70.3659002  63.0811123
  76.8972315  70.1682662  61.8702044  75.5475112  70.4095075  63.6530467
  75.4545218  70.5536119  64.6483789  74.3402676  70.1812130  62.8732501
  74.4664627  69.3050996  62.2371689  73.1542704  69.9411779  63.8047665
  73.3253063  70.5363706  64.7017568  72.2525919  70.2921885  63.3029024
  72.9840356  68.4901383  64.1886026  73.8084069  67.9032272  65.1364430
  74.5830704  68.5093994  65.6060719  73.6621845  66.5786012  65.4879525
  74.3146493  66.1301296  66.2371286  72.6839248  65.8220610  64.8867387
  72.5346172  64.5001689  65.2354186  73.1628499  64.2150555  65.9029766
  71.8551980  66.3793916  63.9387448  71.0810790  65.7785618  63.4614149
  72.0089062  67.7049401  63.5944542  71.3575381  68.1520457  62.8435106
  74.0402583  71.3327980  61.9240049  73.2404346  71.1619020  60.9982308
  74.6528286  72.4966270  62.1342658  75.2991054  72.5794705  62.9059928
  74.3938851  73.6777738  61.3197117  73.4404789  73.5713012  60.8022377
  74.3337853  74.9254551  62.2037736  75.2093788  74.9664387  62.8516590
  74.2968416  75.8230832  61.5865225  73.1369469  74.9721577  63.0986706
  71.8617521  75.1871674  62.6237315  71.0112820  75.1761850  63.6340730
  69.9457720  75.3301754  63.4635611  71.6880735  74.9610549  64.7468682
  71.2997090  74.9011208  65.6772880  73.0198369  74.8296053  64.4393410
  73.7463305  74.6453663  65.2307727  75.4417906  73.8838622  60.2359610
  75.0938601  74.2341943  59.1055046  76.7147755  73.6697007  60.5515628
  76.9636276  73.4448008  61.5042390  77.7865355  73.8086255  59.5709286
  77.6301542  74.7427591  59.0314487  79.1373693  73.8760367  60.2829206
  79.3123613  72.9439732  60.8202616  79.9287472  74.0254651  59.5484192
  79.1356899  74.7068124  60.9885468  77.7981922  72.6828418  58.5514148
  78.7173876  72.6269187  57.7283951  76.8141219  71.7874173  58.5857019
  76.1589559  71.8297181  59.3532093  76.6769081  70.7044463  57.6182619
  75.7844675  70.1217888  57.8466455  76.5512484  71.2543335  56.1944158
  77.5385538  71.6084265  55.8978599  76.2561184  70.4235735  55.5534507
  75.5459310  72.3832277  56.0541173  75.9066716  73.2387602  56.6251087
  75.4762720  72.6535668  55.0004729  74.1754307  71.9771857  56.5634472
  73.8755643  71.0596820  56.0571212  74.2447019  71.7938558  57.6356837
  73.1449745  73.0588256  56.3013535  72.2725502  72.8589525  56.9234684
  73.5776803  74.0193571  56.5810751  72.7357777  73.0971888  54.8715999
  72.3344026  72.2073738  54.6123180  72.0511656  73.8274276  54.7368502
  73.5439680  73.2828082  54.2949951  77.8273525  69.7086904  57.6907937
  78.1209188  69.0247434  56.7063424  78.4920710  69.6056205  58.8412683
  78.3294089  70.2540680  59.5983391  79.5180323  68.5872797  59.0132176
  80.0717664  68.4552852  58.0836720  80.4970450  69.0078112  60.1095653
  79.8918113  69.0307007  61.0158033  81.2690584  68.2446621  60.2080482
  81.1539967  70.3731580  59.9010472  80.3881905  71.1465379  59.9604207
  82.2099960  70.6254504  60.9601165  82.9764414  69.8526811  60.9010578
  82.6655638  71.6017138  60.7943799  81.7479668  70.6035259  61.9471062
  81.7558725  70.4759272  58.5107648  80.9721129  70.3460675  57.7644694
  82.2173729  71.4554394  58.3855674  82.5107936  69.7001506  58.3828437
  78.9328587  67.2208791  59.3424826  79.6301245  66.2127187  59.1921034
  77.6753683  67.1633085  59.7790288  77.2043392  68.0253101  60.0139417
  76.9554095  65.9085987  59.9662969  77.5138303  65.0988168  59.4967028
  76.7759861  65.5823569  61.4504673  76.1740784  66.4079042  61.8303067
  76.2031853  64.6570822  61.5126438  78.0469044  65.4514530  62.2884022
  78.6051938  66.3864261  62.2410824  77.6907701  65.1484073  63.7303802
  77.1328267  64.2132726  63.7785571  78.6035374  65.0570422  64.3191154
  77.0795052  65.9566948  64.1317863  78.9500545  64.3695388  61.7337830
  79.2295008  64.6182897  60.7099997  79.8480385  64.2953757  62.3471555
  78.4235385  63.4151983  61.7444703  75.6035779  66.0321240  59.2826106
  74.7717839  66.8460297  59.6941434  75.3838033  65.2322896  58.2518434
  76.0764733  64.5582845  57.9585436  74.1492005  65.3310001  57.4863362
  73.9934820  66.3608066  57.1648560  74.2198227  64.4401807  56.2507023
  75.0220940  64.8107404  55.6126228  74.4582346  63.4300104  56.5835923
  72.9218800  64.4209846  55.4696681  72.1056690  65.3499123  55.6449106
  72.7190877  63.4784394  54.6765440  72.9722484  64.9297592  58.3667364
  72.9536884  63.8031827  58.8781949  71.9782644  65.7983580  58.5736204
  72.0038773  67.1932153  58.4034501  72.1810885  67.3949775  57.3470466
  72.8342341  67.5838213  58.9916962  70.6661515  67.7142925  58.8776530
  69.9395328  67.7130701  58.0651737  70.7631498  68.7241977  59.2761303
  70.2731205  66.7257813  59.9817011  69.2013795  66.6163305  60.1475047
  70.7616505  66.9801953  60.9222922  70.8464726  65.4284697  59.4336600
  71.2559352  64.8753443  60.2789356  69.7844815  64.5877517  58.7459294
  68.9403883  64.0059065  59.4412457  69.7918027  64.5014205  57.4162011
  70.5056393  64.9587203  56.8671898  68.7282546  63.7916995  56.7143154
  67.7641149  64.0158389  57.1707091  68.6887979  64.2290136  55.2481566
  68.6538048  65.3177749  55.2097692  69.5949997  63.8775192  54.7548516
  67.5551398  63.6970151  54.5869813  67.5540619  63.9855164  53.6713582
  68.9095704  62.2811280  56.8167085  68.0494813  61.5771945  57.3563726
  70.0200319  61.7672161  56.3028370  70.7168081  62.3524969  55.8646035
  70.2416102  60.3299697  56.3247419  69.3626105  59.8124241  55.9405476
  71.4448674  59.9549133  55.4618230  72.3591791  60.2007809  56.0019003
  71.4286717  58.4692152  55.1441488  70.5148091  58.2226569  54.6036270
  72.2928729  58.2192978  54.5286842  71.4666957  57.8983290  56.0719115
  71.4080016  60.6983953  54.2374152  72.1647883  60.4615410  53.6963289
  70.4609831  59.8596496  57.7628683  71.1810868  60.5107372  58.5252938
  69.8593089  58.7356516  58.1669247  69.0263864  57.8376662  57.4744947
  69.4908712  57.6328124  56.5099280  68.0668454  58.3304318  57.3177715
  68.9052241  56.5999772  58.3353910  69.7064893  55.8946123  58.1150877
  67.9416870  56.1141441  58.1815605  69.0195136  57.1492966  59.7621647
  69.4110887  56.4457503  60.4968691  68.0630013  57.5407319  60.1085205
  70.0047800  58.2895515  59.5623672  69.6782915  59.1124998  60.1981813
  71.4210018  57.8874699  59.9423987  71.6902247  57.7145483  61.1374816
  72.3285770  57.7297045  58.9771042  72.1134758  57.9879656  58.0246694
  73.6216052  57.1140647  59.2511914  73.5276744  56.1431515  59.7376106
  74.3999699  56.9314503  57.9330949  73.7760968  56.3840032  57.2265660
  74.7707019  58.2797754  57.3413151  75.3950040  58.8276552  58.0471306
  75.3194999  58.1305173  56.4114531  73.8641077  58.8504248  57.1399503
  75.6403696  56.0856216  58.1637275  75.3476658  55.1059789  58.5415195
  76.1790410  55.9658609  57.2237327  76.2857808  56.5771928  58.8916719
  74.4508662  57.9078539  60.2505281  75.4092367  57.3706484  60.8143847
  74.1105798  59.1751076  60.4924355  73.2746913  59.5840240  60.0997815
  74.9838363  60.0237728  61.2971495  75.9959891  60.0010902  60.8932542
  74.4852278  61.4671834  61.2835694  75.2690695  62.1359899  61.6390819
  74.1934704  61.7547466  60.2734777  73.2945083  61.7021798  62.1558175
  72.0010153  61.5711649  61.7022352  71.1619611  61.8411192  62.6867263
  70.0847133  61.7959606  62.5267360  71.8660454  62.1380721  63.7634097
  71.4913708  62.3845213  64.6683857  73.2030501  62.0591793  63.4592463
  73.9495442  62.2714888  64.2246041  75.1016690  59.5473271  62.7382896
  76.0683569  59.9099433  63.4168013  74.1487198  58.7514500  63.2271071
  73.3218143  58.5266083  62.6925299  74.2457169  58.2509984  64.5956760
  74.3742486  59.0708145  65.3024152  72.9894724  57.4442596  64.9692978
  72.8254230  56.6703360  64.2194776  73.1681106  56.7982464  66.3326207
  73.3317562  57.5716256  67.0830908  72.2730362  56.2302290  66.5861929
  74.0278943  56.1287150  66.3081485  71.7487430  58.3404529  64.9576751
  71.7058297  58.8123568  63.9760612  70.8841095  57.6891160  65.0852235
  71.7387480  59.4106940  66.0340947  72.6028967  60.0627452  65.9069090
  70.8249836  59.9994332  65.9533489  71.7811789  58.9395040  67.0160720
  75.5095131  57.4216798  64.7658600  76.1969474  57.5114559  65.7898695
  75.8325355  56.5922029  63.7719538  75.2099445  56.4323289  62.9929030
  77.0803107  55.8397495  63.8253643  77.1329951  55.2697507  64.7529552
  77.1561426  54.8663162  62.6487712  76.5897455  55.3565778  61.8569776
  78.1984777  54.7720242  62.3442276  76.5733055  53.4770231  62.9063669
  77.1581720  52.9905102  63.6869675  75.1273697  53.5702155  63.3438252
  74.5417481  54.0562361  62.5634855  74.7355155  52.5686122  63.5208620
  75.0620461  54.1530091  64.2626206  76.6969491  52.6168839  61.6676568
  77.7482339  52.5166357  61.3977494  76.2777048  51.6305314  61.8662627
  76.1541044  53.0829882  60.8453641  78.2797811  56.7790501  63.8297385
  79.2130094  56.6100660  64.6237600  78.2704679  57.7858416  62.9516239
  77.5206672  57.9053234  62.2855741  79.4017477  58.7058994  62.8923054
  80.3203633  58.1525662  62.6971978  79.1980587  59.7233628  61.7727698
  78.1900109  60.1255341  61.8737513  79.9240963  60.5230143  61.9194904
  79.3699481  59.1330148  60.3862489  80.2633584  58.5085840  60.3884494
  78.4977305  58.5176277  60.1657102  79.5087042  60.2077372  59.3299803
  79.4422281  59.7521978  58.3419703  78.7057185  60.9351836  59.4488721
  80.7858873  60.9001635  59.4397715  81.5329377  60.4081203  59.9087156
  81.0251717  62.1175636  58.9740163  80.0931958  62.8128865  58.3440219
  79.1746135  62.4149478  58.2100391  80.3043183  63.7386413  57.9997765
  82.2315537  62.6490582  59.1412200  82.9498507  62.1234495  59.6185930
  82.4246367  63.5761928  58.7901657  79.6005840  59.4008355  64.2301148
  80.7363623  59.5875863  64.6787379  78.5063499  59.7903340  64.8842146
  77.5961060  59.7682790  64.4471002  78.6087592  60.3122537  66.2409232
  79.2351218  61.2042827  66.2482321  77.2241936  60.6828546  66.7748916
  76.5946771  59.7991181  66.6708822  77.3428136  60.9214596  67.8318197
  76.5734654  61.8535131  66.0624976  77.2028173  62.7303619  66.2146594
  76.5286506  61.6192345  64.9989167  75.1749157  62.1399033  66.5762917
  74.6461197  61.3149143  67.3498820  74.6053171  63.1875147  66.2053890
  79.2765053  59.2816251  67.1403868  80.2930727  59.5570490  67.7859358
  78.7075946  58.0753275  67.1846455  77.8915899  57.8778512  66.6231844
  79.1972327  57.0359131  68.0818068  79.1794919  57.3754181  69.1174326
  78.3240433  55.7780227  67.9400745  78.1838937  55.5594285  66.8814550
  78.9878579  54.5984679  68.6144080  79.1279285  54.8161478  69.6732263
  78.3580805  53.7154757  68.5057524  79.9567290  54.4123381  68.1510035
  76.9429738  56.0211597  68.5471027  77.0119467  55.8034729  69.6129150
  76.7058005  57.0757510  68.4067982  75.8544797  55.1739050  67.9296634
  76.0907390  54.1191109  68.0699873  74.9019089  55.3992596  68.4091667
  75.7845944  55.3913877  66.8638692  80.6564330  56.7339033  67.7885995
  81.4152792  56.3447761  68.6833924  81.0692911  56.8946427  66.5317816
  80.4214606  57.1334163  65.7946234  82.4712812  56.7290303  66.1895973
  82.7747740  55.7216846  66.4746341  82.5749716  56.8476684  65.1110461
  83.3723369  57.7314337  66.8853033  84.4632621  57.3847797  67.3452589
  82.9328261  58.9847610  66.9717322  82.0119416  59.2050740  66.6202591
  83.7383963  60.0654010  67.5216556  84.7993636  59.8398808  67.4140067
  83.4347001  61.3606741  66.7657989  82.3467783  61.4264832  66.7797460
  83.8557456  62.1920413  67.3311743  83.9293424  61.4244657  65.3236638
  83.8887044  60.4266047  64.8869456  83.0585936  62.3659939  64.5142171
  83.0990916  63.3642306  64.9500868  83.4207515  62.4037291  63.4868328
  82.0292016  62.0077018  64.5231206  85.3730505  61.8596915  65.2889305
  85.9817101  61.1459096  65.8440416  85.7156147  61.9017738  64.2550155
  85.4666434  62.8463651  65.7425982  83.5067623  60.3008466  69.0085547
  84.0845064  61.2382444  69.5681179  82.6864541  59.4845186  69.6616559
  82.2611319  58.7111357  69.1706576  82.2996881  59.7198861  71.0508049
  81.5169217  59.0129138  71.3256976  83.4735858  59.5460720  72.0117305
  84.2618092  60.2243166  71.6849473  83.1272935  59.8424841  73.0018424
  84.0132519  58.1390202  72.0686847  83.1950995  57.4400895  71.8948364
  84.7656420  58.0179524  71.2893556  84.6382588  57.8588319  73.4224671
  85.5190325  58.4890971  73.5453600  83.9143757  58.0906376  74.2037217
  85.0396324  56.4642031  73.5566860  85.0384700  55.9042056  72.7161499
  85.4080227  55.8942483  74.6964842  85.4301790  56.5709444  75.8329345
  85.1620268  57.5446488  75.8426444  85.7151468  56.1107748  76.6856578
  85.7556420  54.6114740  74.6966395  85.7361472  54.0860386  73.8342952
  86.0377086  54.1679673  75.5591005  81.6663620  61.0951007  71.2263636
  81.8829654  61.7754639  72.2299725  80.8816724  61.5124206  70.2378514
  80.8547362  61.0266500  69.3527521  80.0784802  62.7145015  70.3889308
  80.6038979  63.4322802  71.0188745  79.8154956  63.3607006  69.0248081
  79.3903068  62.5530672  68.4289540  79.0664525  64.1396465  69.1672081
  81.0303819  63.9474483  68.2967734  81.7349154  63.1449304  68.0783741
  80.6032901  64.6103488  67.0026144  79.8990556  65.4133335  67.2202566
  81.4778908  65.0215220  66.4985203  80.1253032  63.8736545  66.3569283
  81.7782812  64.9480392  69.1598409  82.1290884  64.4556469  70.0668048
  82.6317078  65.3396982  68.6063363  81.1117121  65.7680973  69.4268416
  78.7716034  62.3803942  71.0807503  78.2107435  63.2184591  71.7937927
  78.2902102  61.1579236  70.8789580  78.7562189  60.5824777  70.1920830
  77.1286605  60.6106038  71.5639618  76.7300403  61.3593762  72.2484624
  76.0279209  60.2131619  70.5795313  76.4817393  59.6800393  69.7441103
  75.3233145  59.5561611  71.0894136  75.3435800  61.3533740  70.0952473
  74.6591766  61.0787214  69.4806273  77.6237641  59.4037971  72.3421989
  78.3283089  58.5576042  71.7894176  77.2556819  59.3180542  73.6155895
  76.6277879  59.9905399  74.0322567  77.7991522  58.2683184  74.4596325
  78.0457483  57.3980720  73.8513886  79.0702486  58.7472191  75.1666806
  79.6087138  57.9074862  75.6060020  79.7164609  59.2597001  74.4540285
  78.8060489  59.7141152  76.2769348  78.9556054  59.3824973  77.6057205
  78.6559979  60.4286633  78.3537212  78.7230536  60.3706842  79.4401101
  78.3040548  61.4225556  77.5596562  78.0170986  62.3454153  77.8530605
  78.3896451  61.0017888  76.2550844  78.1378271  61.6854086  75.4443114
  76.7795579  57.8113155  75.4838907  75.7703474  58.4766151  75.7364214
  77.0711783  56.6531574  76.0747514  77.8681419  56.1311688  75.7393756
  76.2706155  56.0779682  77.1446405  75.2654435  56.4989850  77.1664108
  76.1623514  54.5610137  76.9480424  77.1103267  54.1739767  76.5743510
  75.3726637  54.3427347  76.2291213  75.7297332  53.5575901  78.3812401
  76.9236449  56.4355115  78.4758356  78.1034844  56.1477703  78.6886707
  76.1466982  57.0603280  79.3658149  75.1804442  57.2687799  79.1584499
  76.6951912  57.5154313  80.6412589  77.6071298  58.0874437  80.4701769
  75.6886221  58.4068142  81.3616831  76.1665903  58.8296175  82.2453590
  75.3916356  59.2119132  80.6895859  74.5443651  57.6717719  81.7510347
  73.9279266  58.2540011  82.2011599  77.0969970  56.3578617  81.5426431
  78.0418790  56.4888195  82.3289180  76.4031157  55.2266893  81.4441099
  75.6128672  55.1459592  80.8203397  76.7318883  54.0887616  82.2939058
  76.7278534  54.3871538  83.3422593  75.6929690  52.9842640  82.0962253
  74.7071861  53.3394472  82.3965190  75.6661731  52.6814659  81.0494706
  75.9630593  51.7475143  82.8926117  75.3224168  51.4701326  84.0808232
  75.7605404  50.3196310  84.5571580  75.3727339  49.9240980  85.4959118
  76.6632280  49.8384596  83.7208194  77.1699347  48.9711681  83.8264304
  76.8077438  50.7128460  82.6707410  77.5121755  50.4903527  81.8692587
  78.1366259  53.5775279  82.0017648  78.8924584  53.2566798  82.9251736
  78.5006494  53.4911898  80.7213263  77.8472042  53.7053606  79.9815695
  79.8367356  53.0323446  80.3532153  80.1268480  52.2261274  81.0269725
  79.8213100  52.4924162  78.9238465  80.7951927  52.0645357  78.6860004
  79.6027083  53.3045398  78.2304717  78.6256233  51.1622725  78.6384341
  80.8814951  54.1403409  80.4797014  82.0149445  53.8782531  80.8958365
  80.5232722  55.3757146  80.1364328  79.5833410  55.5408647  79.8057455
  81.4562801  56.5032990  80.1672639  82.3973140  56.2231199  80.6406072
  81.7539130  57.0236310  78.7537511  80.8915791  57.5824264  78.3901205
  82.9723244  57.9299419  78.7734523  83.8352254  57.3716808  79.1365602
  83.1726847  58.2921892  77.7651204  82.7848110  58.7773787  79.4328394
  81.9705831  55.8756878  77.7964019  81.0741464  55.2565674  77.7618608
  82.1799799  56.2668076  76.8007725  82.8142106  55.2740651  78.1346971
  80.8697897  57.6092269  81.0373620  80.2173670  58.5276325  80.5213110
  81.0751894  57.5619032  82.3544726  81.6565581  56.5481165  83.1173591
  82.6487968  56.3538376  82.7101510  81.0392822  55.6561893  83.0099564
  81.7019479  57.0491740  84.5422332  82.6236551  57.5999410  84.7298777
  81.6246388  56.2206513  85.2462750  80.4743327  57.9634438  84.6359113
  80.5227415  58.7642152  85.3738277  79.5812353  57.3632655  84.8098732
  80.4382218  58.5531700  83.2349091  79.3920104  58.6013277  82.9328811
  81.0403175  59.9539312  83.2045304  80.3297135  60.8993737  83.5654269
  82.2973348  60.1444100  82.7912479  82.8266123  59.3818312  82.3932048
  82.9570619  61.4461400  82.9391428  82.2356372  62.1980025  83.2590621
  84.0623643  61.3511909  83.9906276  84.8467738  60.7224829  83.5692880
  84.4464222  62.3605797  84.1380515  83.6169493  60.7779988  85.3279546
  83.1312428  59.8211588  85.1365196  84.5071459  60.6177341  85.9362039
  82.6585614  61.6921803  86.0662896  83.1403936  62.6570823  86.2240893
  81.7624350  61.8288071  85.4609879  82.2751338  61.0906856  87.4115244
  81.7436818  60.1578729  87.2230572  83.1936616  60.8806114  87.9594977
  81.4139988  61.9975684  88.2170056  80.5626258  62.1920084  87.7096034
  81.1882843  61.5545823  89.0961621  81.9064330  62.8618272  88.3921179
  83.5494060  61.9355008  81.6136536  84.7366664  62.2426855  81.5234851
  82.7245436  62.0079369  80.5717907  81.7826989  61.6483567  80.6328635
  83.1753660  62.5538500  79.2955098  84.2315558  62.3312948  79.1437479
  82.3759143  61.9278700  78.1547465  82.4132485  60.8575412  78.3574815
  81.3500619  62.2812799  78.2588056  82.8634972  62.1934057  76.7325233
  82.8957892  63.2704394  76.5680349  84.2448150  61.6079466  76.5161260
  84.2132187  60.5307988  76.6799951  84.5699833  61.8103032  75.4956270
  84.9459559  62.0611377  77.2169253  81.8814766  61.5948208  75.7469634
  80.9013808  62.0506132  75.8875515  82.2263947  61.7824825  74.7301469
  81.8089230  60.5199736  75.9129108  83.0423241  64.0769089  79.2801265
  81.9864904  64.6179769  79.6231988  84.1112688  64.7672849  78.8795506
  84.9832056  64.2949694  78.6878641  84.0662217  66.2222411  78.7420037
  83.7307683  66.6691757  79.6778561  85.4497828  66.7771922  78.4040111
  85.8888113  66.0998225  77.6715335  85.2925046  67.7539062  77.9464157
  86.3914533  66.9193188  79.5915576  87.1806686  67.6189260  79.3162582
  85.8102148  67.3338504  80.4152229  87.0096278  65.6050573  80.0215203
  86.7800403  64.5833440  79.3426260  87.7368072  65.5996099  81.0367083
  83.0742357  66.6400582  77.6569827  83.1620289  66.1430830  76.5262338
  82.1272529  67.5355963  77.9446700  81.8201665  68.2308881  79.1460165
  82.7515331  68.6396904  79.5378547  81.4163120  67.5060764  79.8528748
  80.8196168  69.3058504  78.7879643  81.3267360  70.2223592  78.4864003
  80.1597974  69.5163839  79.6296384  80.0387334  68.6879870  77.6213681
  79.6287745  69.4282516  76.9343157  79.2427529  68.0218497  77.9541980
  81.1288781  67.8873680  76.9279073  80.6715620  66.9663251  76.5664655
  81.7456935  68.6392488  75.7583488  82.7591725  69.3266253  75.8938620
  81.1156388  68.5001767  74.5994079  80.3489962  67.8478776  74.5165559
  81.5368321  69.2334420  73.4018053  82.6177655  69.3737303  73.4006519
  81.1202900  68.4879203  72.1394032  81.3970576  69.0772707  71.2652373
  81.8150910  67.1439452  72.0821448  81.5384286  66.5538061  72.9558120
  81.5129211  66.6163845  71.1774494  82.8948442  67.2926970  72.0718936
  79.6031477  68.2963028  72.0881110  79.4131582  67.2486086  71.8549981
  79.2106327  68.5244597  73.0790580  78.9209148  69.1719802  71.0625037
  79.3126058  68.9440556  70.0711771  77.8473197  68.9844325  71.0803583
  79.1100824  70.2199073  71.2952360  80.9311191  70.6359056  73.4385835
  79.7220538  70.7678479  73.6810116  81.7112711  71.6978803  73.2189281
  83.0570558  71.8040698  72.7645400  83.2093337  71.0361405  72.0061229
  83.7081384  71.6070232  73.6162224  83.2308075  73.2026327  72.2176706
  82.9598305  73.2429276  71.1626602  84.2592568  73.5419017  72.3413230
  82.2715477  74.0387072  73.0748019  81.8949665  74.9205053  72.5564220
  82.7020601  74.3361831  74.0309749  81.1394694  73.0494434  73.3010182
  80.7712102  73.2074768  74.3146793  79.9971458  73.2343027  72.3124506
  80.0377886  72.7335260  71.1870299  78.9672999  73.9666413  72.7462600
  78.9574666  74.3585284  73.6770807  77.7998281  74.1757896  71.8948114
  77.4132975  73.2157629  71.5526974  76.6987134  74.8965868  72.6725998
  77.1221194  75.8381796  73.0222131  75.8937207  75.1007036  71.9666090
  76.1492503  74.1192385  73.8550840  75.1096247  74.4154658  73.9948293
  76.1939863  73.0593138  73.6047694  76.9219137  74.3688308  75.1353059
  77.9071952  75.1364520  75.1023801  76.5427298  73.7969456  76.1786825
  78.1516178  74.9703213  70.6451264  77.6828456  74.6528298  69.5464806
  78.9725234  76.0103948  70.7924431  79.4007715  76.1679096  71.6934936
  79.2617071  76.9466290  69.7189538  79.0326033  76.4865670  68.7577287
  78.4156632  78.2185854  69.8679995  77.3972172  77.9377888  70.1363654
  78.8341733  78.8545566  70.6480572  78.3169122  79.0596089  68.6385050
  79.0323538  80.1827379  68.3594215  79.7592793  80.5004498  69.1069095
  78.6620988  80.6895130  67.1415281  79.0454875  81.5169536  66.7074143
  77.6877388  79.8896954  66.6066308  77.0085934  79.9921745  65.3995742
  77.2499656  80.8210006  64.7340778  76.0735766  79.0387792  65.1222171
  75.5194488  79.0869230  64.1848140  75.8067432  77.9961734  66.0144895
  75.0576187  77.2394294  65.7815725  76.4803610  77.8927278  67.2128564
  76.2358593  77.0608973  67.8734452  77.4434378  78.8530702  67.5246428
  80.7442298  77.2916046  69.7596746  81.3134428  77.4251737  70.8520573
  81.3992713  77.4406915  68.6060335  80.9629757  77.3709407  67.2420221
  80.0510977  77.9615605  67.1540056  80.7426947  76.3276011  67.0161508
  82.0928598  77.9175960  66.3979434  82.0053582  78.9983052  66.2860943
  82.1015328  77.4504419  65.4131626  83.3462411  77.5367834  67.1955411
  84.1706511  78.2298741  67.0279929  83.6874605  76.5171159  67.0168034
  82.8397061  77.6715720  68.6226937  83.3164070  76.8864188  69.2095403
  83.1587549  79.0224826  69.2333838  82.3614870  79.9695159  69.1280424
  84.3131318  79.1642605  69.8794418  85.2287146  78.1909112  70.4544672
  85.9396112  77.8881369  69.6856668  84.6533805  77.3236460  70.7784131
  85.8921960  78.9066819  71.6093619  86.8670901  78.4704143  71.8269651
  85.2678512  78.8631102  72.5017723  86.0241706  80.3484378  71.1034808
  86.8844415  80.4693564  70.4451407  86.0629946  81.0991440  71.8928048
  84.7378656  80.4997862  70.3063169  83.9885224  80.9173553  70.9787892
  84.8937835  81.4062772  69.0977700  85.3791796  80.9854665  68.0467258
  84.4770327  82.6637793  69.2517677  84.1692577  83.0183274  70.1460101
  84.3925755  83.5441821  68.0931531  83.7834907  83.0781629  67.3185945
  83.7532474  84.8787134  68.4808576  83.9137944  85.4922793  67.5943696
  82.6857433  84.7003698  68.6101966  84.3005689  85.6056288  69.7092074
  84.4365692  84.8788650  70.5100939  85.6276879  86.2802629  69.4073849
  85.4923809  87.0075483  68.6068558  85.9894110  86.7879805  70.3015213
  86.3549143  85.5300385  69.0968925  83.2824817  86.6193032  70.1998750
  82.3579051  86.1069128  70.4657951  83.6759547  87.1355626  71.0755214
  83.0815819  87.3442642  69.4110976  85.7528725  83.7847516  67.4548590
  85.8132553  84.2517657  66.3117730  86.8451617  83.4740296  68.1569076
  86.7880556  83.1626779  69.1160209  88.1654900  83.6396005  67.5614705
  88.2643949  84.6651322  67.2056589  89.2476573  83.3793940  68.6075012
  89.1672820  82.3534344  68.9667322  90.2300133  83.5313104  68.1602894
  89.1190393  84.0674813  69.4430205  88.3564001  82.7200919  66.3631024
  89.0885276  83.0641247  65.4286252  87.7111747  81.5535731  66.3664378
  87.0866440  81.3302819  67.1281476  87.9161833  80.5557074  65.3271999
  88.8543515  80.7468464  64.8062339  87.9769259  79.1552292  65.9476814
  88.8201264  79.1213452  66.6375829  87.0514925  78.9823651  66.4970364
  88.1344021  78.1504392  64.9595875  88.1685394  77.2889710  65.3818516
  86.8357597  80.5859384  64.2563857  86.9830177  79.9061074  63.2361162
  85.7559268  81.3374089  64.4673829  85.6275584  81.7907548  65.3607465
  84.7104875  81.4859608  63.4593165  85.0935250  81.1836016  62.4846574
  83.5006033  80.6108218  63.8028860  82.7356872  80.7000436  63.0314962
  83.8008749  79.5672411  63.8970991  82.6955393  81.0416737  65.3574276
  81.7537336  80.1049638  65.2905341  84.2378264  82.9175747  63.2759937
  83.7029161  83.2334876  62.2076571  84.4052028  83.7935672  64.2639548
  84.7656568  83.4790836  65.1534897  84.0863732  85.1971032  64.1101871
  84.5681806  85.7309228  64.9293314  84.5135634  85.5249461  63.1624915
  82.6114873  85.5126011  64.1189985  82.2359525  86.6567734  63.8485559
  81.7650534  84.5371868  64.4245841  82.1446908  83.6238731  64.6291150
  80.3189962  84.7037272  64.4442841  80.0372152  85.7335899  64.2250093
  79.6193161  83.7775198  63.4358240  79.8943243  82.7450634  63.6514704
  78.1136589  83.9302199  63.5336410  77.8378264  84.9623859  63.3176531
  77.6332248  83.2679735  62.8134235  77.7862052  83.6702095  64.5402543
  80.0991419  84.0739834  62.0261427  81.1758203  83.9146310  61.9672146
  79.5951868  83.4106476  61.3232099  79.8713756  85.1098069  61.7745617
  79.8359889  84.4140240  65.8597253  80.0872030  83.3258491  66.3844977
  79.1471734  85.3362577  66.5243118  79.0275062  86.7480125  66.3016327
  78.6617520  86.8931168  65.2851343  80.0222825  87.1836886  66.3949354
  78.0676613  87.2740516  67.3447174  77.0388684  87.2144292  66.9895703
  78.3034758  88.3067237  67.6017801  78.3014106  86.3450983  68.5417341
  77.4131053  86.2450066  69.1654282  79.1503563  86.6311288  69.1626830
  78.5919939  85.0273369  67.8408446  79.3469873  84.5077492  68.4308547
  77.3622027  84.1483429  67.7072739  76.7980839  84.0240156  66.6111983
  76.9157534  83.5183486  68.7954132  77.3868195  83.5549837  70.1407602
  76.9795199  84.4411438  70.6275124  78.4749750  83.6167205  70.1264397
  76.8903698  82.2697969  70.7645187  76.7922413  82.3759500  71.8448896
  77.5664465  81.4445429  70.5409620  75.5272924  82.0564954  70.0970253
  74.7051708  82.6195918  70.5387692  75.2673597  80.9983733  70.0668232
  75.8036564  82.5631223  68.6902805  76.1626102  81.7148630  68.1074370
  74.5543492  83.1336228  68.0372370  73.8864752  84.0063183  68.5986129
  74.2347291  82.6328976  66.8441874  74.9096518  82.0545237  66.3645393
  72.9795079  82.9457748  66.1610728  73.0133097  82.5681114  65.1391496
  71.7968941  82.2997854  66.8814974  71.7631757  82.6398431  67.9165448
  70.8624388  82.5590169  66.3838104  71.8593129  80.8020633  66.9237957
  71.6549762  80.0546385  65.7787574  71.4477211  80.5657368  64.8385852
  71.7109564  78.6789450  65.8169871  71.5505872  78.1002001  64.9073516
  71.9701494  78.0341381  67.0074127  72.0142073  76.9455101  67.0397814
  72.1733666  78.7655525  68.1555194  72.3789920  78.2586781  69.0983325
  72.1164013  80.1415240  68.1112108  72.2749306  80.7230810  69.0193736
  72.7652763  84.4513797  66.0279244  71.6482472  84.9538312  66.1615072
  73.8433433  85.1821508  65.7599797  74.7535405  84.7482166  65.7021735
  73.7531977  86.6230195  65.5777710  72.7571496  86.8770443  65.2151987
  74.0038214  87.3756196  66.8876175  74.9204809  86.9717239  67.3173882
  74.1552262  88.4237435  66.6295226  72.8812492  87.2618801  67.8963911
  72.0212277  87.8233623  67.5314231  72.6088261  86.2123034  68.0071897
  73.2730560  87.8051871  69.2522561  74.3532617  88.3717029  69.4169968
  72.3971849  87.6348391  70.2349140  72.6084981  87.9785077  71.1608406
  71.5234259  87.1623335  70.0521984  74.7660286  87.0587457  64.5329082
  75.8877711  86.5488732  64.4969252  74.3652994  88.0036066  63.6923584
  73.4216430  88.3630836  63.7120631  75.2774679  88.5179878  62.6851714
  75.6850714  87.6925461  62.1015579  74.5509563  89.4730643  61.7389691
  74.0300859  90.2081374  62.3525331  75.3077605  89.9747163  61.1358998
  73.5552643  88.7791913  60.8264454  74.0998271  88.0768659  60.1953422
  72.8439667  88.2335797  61.4464984  72.8084384  89.7695730  59.9527612
  72.2648968  90.4616412  60.5959588  73.5326880  90.3227213  59.3547738
  71.8312296  89.0597924  59.0340471  72.3985512  88.3979378  58.3796808
  71.1537533  88.4680033  59.6496043  71.0441436  90.0163603  58.2097568
  71.6716944  90.5645279  57.6389748  70.4084571  89.5043593  57.6148976
  70.5180456  90.6294648  58.8159110  76.4420557  89.2300742  63.3671730
  76.2511034  89.8835863  64.3994060  77.6526547  89.1288803  62.8301228
  78.1045146  88.4690474  61.6518478  77.4233482  88.7326070  60.8427440
  78.0541976  87.3954283  61.8332569  79.5177466  88.9457225  61.3998930
  79.5192130  89.8514430  60.7934548  80.1036870  88.1739405  60.9007659
  80.0558529  89.2152166  62.8098410  80.8301666  89.9819345  62.8359349
  80.4211179  88.3137908  63.3018905  78.8056362  89.7193152  63.5125541
  78.8324729  89.3361250  64.5326244  78.7296120  91.2356283  63.5440479
  78.1979525  91.8768032  62.6348247  79.2722053  91.8073407  64.6198209
  79.5972628  91.2548612  65.4003357  79.3663726  93.2597303  64.7139219
  78.4308074  93.7161157  64.3906118  79.6380983  93.6744825  66.1592031
  80.3249501  92.9082663  66.5187117  80.1516567  94.6353400  66.1258752
  78.4427579  93.7693545  67.1036022  77.8298077  94.6197146  66.8048039
  77.6076498  92.5049400  67.0603547  78.2198380  91.6541526  67.3594955
  76.7637897  92.6026994  67.7433217  77.2379966  92.3475167  66.0471051
  78.9380187  94.0349470  68.5137347  79.4939571  94.9723033  68.5336138
  78.0870308  94.1033895  69.1914045  79.5891988  93.2201296  68.8301775
  80.4606328  93.7968703  63.8023051  80.2676587  94.8046723  63.1134037
  81.6137045  93.1350604  63.7853879  81.7294051  92.2964543  64.3362531
  82.7481636  93.6143747  63.0133247  82.9408015  94.6630084  63.2399455
  83.9973608  92.8048951  63.3511223  83.8775138  91.7907561  62.9699936
  85.2202435  93.4368227  62.7255221  85.3410181  94.4508905  63.1065465
  86.1025451  92.8477345  62.9757579  85.0999944  93.4680487  61.6426253
  84.1675885  92.7558204  64.7723908  84.9535432  92.2464423  64.9831263
  82.4545842  93.5229300  61.5197468  81.7713932  92.6101139  61.0522579
  82.9810578  94.4862107  60.7681565  83.5410450  95.2194894  61.1790288
  82.7301036  94.5308412  59.3408481  81.6666193  94.3927612  59.1458244
  83.1587565  95.8798468  58.7724500  82.8817595  96.6598364  59.4816665
  84.2410612  95.8746541  58.6432621  82.5360988  96.1328988  57.5259480
  82.8230965  96.9860574  57.1922528  83.4793543  93.4000839  58.6371909
  84.4849077  92.9000072  59.1437742  83.0028583  92.9743615  57.4614775
  81.8292354  93.3364942  56.7366305  82.0477584  94.2261493  56.1459853
  81.0365914  93.5606025  57.4504861  81.5088075  92.1340946  55.8783023
  80.9408800  92.4283604  54.9957124  80.9424324  91.3944702  56.4442319
  82.8917412  91.5913658  55.4989279  83.3690807  92.0990177  54.6607540
  82.8548822  90.5201300  55.3009511  83.6729643  91.8562765  56.7764892
  83.5622848  90.9761068  57.4098530  85.1468847  92.0982499  56.5001824
  85.9494888  91.1623308  56.6054964  85.5283166  93.3232206  56.1316629
  84.8661164  94.0825313  56.0606871  86.9160372  93.5780881  55.7578863
  87.2198142  92.8979987  54.9620866  87.0665282  95.0138456  55.2571201
  86.7446252  95.6942804  56.0454640  88.1164747  95.1954306  55.0274697
  86.2851889  95.2329872  54.0967995  86.3966554  96.1399601  53.8025632
  87.8638428  93.3182592  56.9214492  88.9284352  92.7147308  56.7441990
  87.5006982  93.7757496  58.1191943  86.6697550  94.3371446  58.2394788
  88.3465053  93.5346601  59.2823762  89.3667961  93.8598129  59.0789518
  87.8143308  94.3183947  60.4785101  86.8222135  93.9328715  60.7134025
  88.4831235  94.1355400  61.3195692  87.7278727  95.8098425  60.2167517
  88.6558512  96.1242803  59.7391686  86.8928523  95.9869329  59.5389007
  87.5214699  96.6036291  61.4893623  86.6388471  96.2326352  62.0103607
  88.3949653  96.4940973  62.1320971  87.3309535  98.0191779  61.1974012
  88.1612787  98.5921839  61.1491972  86.1519734  98.5953708  61.0022252
  85.0242160  97.9059344  61.0600050  85.0508094  96.9156864  61.2569867
  84.1419255  98.3730645  60.9068625  86.1038255  99.8961944  60.7332724
  86.9597004 100.4298502  60.6804552  85.2115875 100.3449900  60.5829639
  88.4406350  92.0490251  59.6004050  89.5127300  91.5526486  59.9683898
  87.3336438  91.3181882  59.4640746  86.4336640  91.7433850  59.2927756
  87.3956957  89.8682460  59.6186713  87.7480934  89.6160390  60.6188247
  86.0098145  89.2555023  59.4202494  85.6524006  89.7275248  58.5050721
  86.1429181  88.1872345  59.2494061  84.9873549  89.4691577  60.5361820
  84.8747020  90.5378241  60.7188357  83.6459738  88.8802566  60.1352205
  83.7577388  87.8114517  59.9528372  82.9249707  89.0380000  60.9373254
  83.2911971  89.3680902  59.2273371  85.4726160  88.8566319  61.8403273
  86.4134289  89.3226175  62.1332915  84.7280227  89.0216766  62.6190714
  85.6247953  87.7858323  61.7049435  88.3894838  89.2637995  58.6374020
  89.2469243  88.4589705  59.0191547  88.2914854  89.6449399  57.3642157
  87.5708348  90.2821325  57.0564044  89.1980901  89.0931072  56.3659214
  89.1091596  88.0070192  56.3413606  88.8531785  89.6423733  54.9833337
  87.8016814  89.4401832  54.7794412  89.0222766  90.7191768  54.9830518
  89.6527518  89.0388084  53.9814285  89.4174618  89.3999174  53.1236180
  90.6454430  89.4013992  56.7212489  91.5268376  88.5470506  56.5720845
  90.9119997  90.6189991  57.1953417  90.2031535  91.3359460  57.2555379
  92.2731637  90.9572643  57.5947951  92.9636560  90.7079437  56.7890911
  92.3959561  92.4478931  57.8985467  91.8999680  92.9936961  57.0959297
  91.8811537  92.6398616  58.8399428  93.8412619  92.9100595  58.0079058
  94.3271074  92.3183368  58.7837404  94.3285925  92.7237279  57.0508836
  93.9511548  94.3812485  58.3521753  95.0024840  94.6445054  58.4683719
  93.5163559  94.9714685  57.5455220  93.2515784  94.6962509  59.5903544
  92.6481443  93.9819311  59.9720792  93.3548310  95.8494422  60.2371704
  94.1214676  96.8289789  59.7857924  94.6433500  96.7042898  58.9301106
  94.1812025  97.6968012  60.2990330  92.6744360  96.0232428  61.3664223
  92.0887428  95.2797880  61.7190390  92.7464835  96.8979029  61.8662998
  92.7177489  90.1545821  58.8083313  93.9158327  89.8984501  58.9724427
  91.7835203  89.7580504  59.6724804  90.8132385  90.0148134  59.5596736
  92.1602909  88.9797294  60.8453138  93.0711390  89.3871798  61.2839928
  91.0484979  89.0286274  61.8941604  90.8747248  90.0730720  62.1530768
  90.1472744  88.6114134  61.4449069  91.3959385  88.2483918  63.1476604
  92.5834225  87.9160727  63.3366549  90.4787968  87.9687432  63.9474327
  92.4681364  87.5335919  60.4846707  93.3344395  86.9142430  61.1126603
  91.7774601  86.9844005  59.4857432  91.0827456  87.5223766  58.9876942
  91.9613802  85.5871323  59.1197801  92.0376208  84.9712495  60.0158687
  90.7671368  85.1061374  58.2968733  90.5398585  85.8235886  57.5083889
  90.9842933  84.1349687  57.8521551  89.5155934  84.9397182  59.0974492
  88.2706972  84.8347255  58.5174225  87.3574738  84.7003945  59.4628706
  86.3026084  84.6040375  59.2058231  87.9658009  84.7113670  60.6341147
  87.5200608  84.6248087  61.5362917  89.3164562  84.8606518  60.4337523
  89.9936433  84.8938472  61.2872257  93.2490093  85.3542464  58.3418138
  93.6901108  84.2053687  58.2319383  93.8588374  86.4110132  57.8024154
  93.4522347  87.3317016  57.8867149  95.0885383  86.2667895  57.0350946
  94.9361838  85.4772988  56.2991655  95.3985853  87.5677735  56.2979939
  95.5626307  88.3659408  57.0219539  96.2951554  87.4377876  55.6918867
  94.5595885  87.8295244  55.6532690  96.2788591  85.8764655  57.8979143
  97.3286243  85.5276524  57.3492812  96.1480402  85.9301255  59.2232946
  95.2890075  86.2582139  59.6410507  97.2495052  85.5663127  60.1043577
  98.2045635  85.8340245  59.6523696  97.1197411  86.2968279  61.4407823
  97.9680616  86.0322723  62.0720216  97.0966183  87.8017163  61.2282681
  96.2482397  88.0671026  60.5974564  97.0037698  88.3037863  62.1912862
  98.0212406  88.1149616  60.7434469  95.9131051  85.8918290  62.0961719
  95.8345060  86.3521973  62.9349112  97.3283437  84.0675319  60.3602707
  98.4038841  83.5689058  60.7057152  96.2273240  83.3424144  60.2031646
  95.3477844  83.7807803  59.9700452  96.2467582  81.9044255  60.4101240
  96.7883814  81.6697427  61.3264576  94.8223532  81.3644150  60.5328434
  94.4063835  81.4831370  59.5323567  94.8727003  80.3043257  60.7813913
  93.9275725  82.0838996  61.5459369  94.0974247  83.1578198  61.4688240
  92.4655948  81.7824723  61.2729136  92.2948616  80.7087129  61.3503067
  91.8445321  82.3021178  62.0025372  92.2057715  82.1197654  60.2695066
  94.2951501  81.6940671  62.9620832  95.3329037  81.9650493  63.1563393
  93.6459621  82.2177861  63.6637773  94.1715772  80.6183297  63.0870541
  96.9793702  81.2167594  59.2610822  97.1991937  81.7960003  58.1950078
  97.3612834  79.9609011  59.4855731  97.2103443  79.5226699  60.3829416
  98.0769076  79.2115229  58.4632950  98.8999368  79.8108779  58.0740703
  98.6462434  77.9223489  59.0470837  99.2182912  77.4075254  58.2751916
  99.3060006  78.1826028  59.8747843  97.5744307  76.9865528  59.5592917
  96.4478615  76.9781067  59.0686376  97.9272139  76.1827765  60.5527412
  97.2544771  75.5350155  60.9373587  98.8670994  76.2218711  60.9204199
  97.1617117  78.9215345  57.2725922  95.9881671  79.2973968  57.2415841
  97.7207934  78.2345996  56.2745891  98.6524388  77.8537582  56.3588273
  96.9965276  78.0163900  55.0327052  96.7162538  78.9934871  54.6392245
  97.6773027  77.5265614  54.3364922  95.7484376  77.1679329  55.1818386
  94.7592263  77.3906565  54.4802831  95.7712864  76.1870897  56.0826352
  96.5821424  76.0474488  56.6683931  94.6584574  75.2531184  56.2084066
  94.1855483  75.1410812  55.2327510  95.1792440  73.8866936  56.6591678
  95.6475456  73.9809206  57.6389202  94.3491261  73.1829144  56.7199902
  95.9125569  73.5215247  55.9401386  93.5952466  75.7577053  57.1784276
  92.4041449  75.7928561  56.8405474  94.0071327  76.1215099  58.3930350
  94.9615293  75.9813095  58.6923180  93.0593797  76.6789540  59.3472574
  92.2657718  75.9592202  59.5479285  93.7668237  77.0045711  60.6614299
  94.1248974  76.0372295  61.0137544  94.6184034  77.6467494  60.4366650
  92.9093805  77.6568222  61.7473215  92.5888991  78.6383366  61.3980050
  91.6925928  76.8101124  62.0590929  92.0122995  75.8285337  62.4089351
  91.0999530  77.2961898  62.8340817  91.0887339  76.6954916  61.1589169
  93.7319167  77.8831215  63.0001363  94.5729975  78.5371200  62.7699875
  93.1096501  78.3478391  63.7649390  94.1054659  76.9273788  63.3677172
  92.3828736  77.9172404  58.7834432  91.2357719  78.2062934  59.1281343
  93.0718764  78.6549892  57.9109744  94.0391696  78.4493158  57.7056899
  92.4609130  79.8171759  57.2728500  92.0927755  80.5113537  58.0282911
  93.4995131  80.5373625  56.4121833  94.3007689  80.8482652  57.0825771
  93.8833512  79.8029056  55.7041286  92.9775455  81.7429055  55.6560082
  92.1745080  81.4273628  54.9899268  92.5900078  82.4646451  56.3750412
  94.0573431  82.4144235  54.8292110  95.1709143  81.9048558  54.7123136
  93.7299576  83.5597208  54.2461897  94.4111631  84.0493773  53.6837869
  92.8009312  83.9370177  54.3672620  91.2571739  79.4074654  56.4351661
  90.1767143  79.9986574  56.5474698  91.4210227  78.3864785  55.5926952
  92.3198176  77.9425039  55.4695948  90.3032473  77.9215202  54.7800097
  89.8756104  78.7558842  54.2240757  90.7771949  76.8648221  53.7858005
  91.5632746  77.2752116  53.1519563  91.1570864  75.9909312  54.3150426
  89.6983358  76.3748015  52.8679465  88.9159356  77.2657056  52.1606404
  89.0897757  78.3355465  52.2760522  87.9241682  76.8159283  51.3160565
  87.3146773  77.5298774  50.7620725  87.7036284  75.4669192  51.1723121
  86.9195232  75.1090499  50.5050726  88.4736995  74.5687784  51.8715794
  88.3015667  73.4983558  51.7590362  89.4639765  75.0223286  52.7154258
  90.0735448  74.3107790  53.2724030  89.1866805  77.3625956  55.6496641
  88.0023577  77.6091855  55.3899411  89.5435923  76.6021089  56.6853861
  90.5087629  76.3619628  56.8610986  88.5193837  76.0409694  57.5631680
  87.8204691  75.4546268  56.9666615  89.1633078  75.1246909  58.6008580
  89.8591581  75.6995239  59.2119714  88.3895950  74.6961031  59.2378676
  89.7015409  74.3233584  58.0946262  87.7181567  77.1460608  58.2446276
  86.4824944  77.0932679  58.3008099  88.4088551  78.1585238  58.7687569
  89.4187523  78.1592226  58.7543920  87.7274100  79.2618389  59.4295734
  87.0457235  78.8889013  60.1939818  88.7492143  80.1795569  60.0934497
  89.4753532  80.4986755  59.3457961  88.0692661  81.3955379  60.6876168
  87.3432638  81.0772161  61.4357422  88.8155571  82.0370837  61.1561974
  87.5589419  81.9486608  59.8991215  89.4317103  79.4632154  61.1295917
  90.0748267  80.0405443  61.5475545  86.8659287  80.0435597  58.4496078
  85.7602069  80.4707402  58.7935817  87.3543487  80.2497979  57.2253975
  88.2901786  79.9718400  56.9664357  86.5455977  80.9563411  56.2397001
  86.2369486  81.9241305  56.6349452  87.3547477  81.1853566  54.9652162
  88.3367263  81.5482984  55.2686804  87.4613127  80.2182261  54.4738889
  86.7243125  82.1768559  54.0003402  85.7745746  81.7658771  53.6580023
  86.5443456  83.1092418  54.5354762  87.6223160  82.4458128  52.8008012
  87.9034854  81.4890568  52.3607323  87.0577065  83.0281478  52.0726518
  88.8769719  83.2095054  53.1973251  88.5750396  84.0847688  53.7725219
  89.4886140  82.5583045  53.8217693  89.6653108  83.6430795  52.0120638
  89.0988717  84.2468540  51.4335287  90.4865555  84.1444897  52.3190574
  89.9455498  82.8321617  51.4791685  85.2706330  80.1796200  55.9463838
  84.1812007  80.7602612  55.8709719  85.3869255  78.8608536  55.7851375
  86.2949188  78.4185397  55.7826924  84.2109117  78.0276077  55.5572634
  83.6968029  78.3420143  54.6490015  84.6373223  76.5696658  55.3969749
  85.3732045  76.5425231  54.5933332  85.1113719  76.2746690  56.3331126
  83.5075403  75.6112498  55.0793896  82.8641514  75.4666564  55.9472861
  82.9303757  76.0592191  54.2704974  84.0134038  74.2601881  54.6219145
  85.0816452  74.1573657  54.0211644  83.2738966  73.2100952  54.9490353
  83.5649799  72.2843634  54.6690484  82.4226760  73.3404352  55.4768008
  83.2194451  78.1740951  56.7049120  82.0250624  78.4236499  56.4915356
  83.7046514  78.0078793  57.9385068  84.6833682  77.8154819  58.0972393
  82.8125794  78.0496127  59.0910852  82.0233019  77.3066285  58.9765667
  83.5872098  77.7452726  60.3714816  84.4734830  78.3736926  60.2836894
  82.9770302  78.0929724  61.2050796  84.0114191  76.2992925  60.6199045
  84.7754022  76.0149788  59.8963049  84.5712625  76.1705365  62.0217702
  83.8076527  76.4542578  62.7459946  84.8740857  75.1386003  62.1992714
  85.4354135  76.8259844  62.1300815  82.8581881  75.3356950  60.4221871
  82.4897301  75.4141875  59.3993592  83.1991598  74.3171801  60.6078398
  82.0551978  75.5818023  61.1169797  82.1290870  79.4046640  59.2011398
  80.9308941  79.4811253  59.4943778  82.8742433  80.4901150  58.9879001
  83.8604999  80.4217036  58.7812190  82.2845068  81.8161940  59.1087446
  81.7267535  81.8920610  60.0421548  83.3787254  82.8801522  59.1065938
  84.2300902  82.5073453  59.6760605  83.6841922  83.0655372  58.0768257
  82.9158856  84.0861507  59.6855212  83.6203054  84.7382454  59.6726711
  81.2874575  82.0814204  57.9895995  80.2827083  82.7655467  58.2073933
  81.5458122  81.5574521  56.7909894  82.4122514  81.0731785  56.6042772
  80.5966562  81.7203915  55.6985574  80.2876271  82.7631751  55.6264297
  81.2408918  81.3093832  54.3753002  82.1616291  81.8835510  54.2719881
  81.4810333  80.2486835  54.4484308  80.3584164  81.5458209  53.1620804
  79.5868215  80.7762062  53.1412129  79.8910423  82.5255698  53.2608508
  81.1584570  81.4948519  51.8729775  80.4785848  81.6007068  51.0275974
  81.8759026  82.3154187  51.8665392  81.8842229  80.2390999  51.7339642
  82.8745761  80.2555149  51.9315257  81.3307635  79.0905963  51.3687451
  80.0386205  78.9996877  51.0959242  79.4522094  79.8191280  51.1647680
  79.6451170  78.1113058  50.8201848  82.0921799  78.0044460  51.2741538
  83.0791695  78.0638589  51.4801189  81.6799885  77.1250936  50.9967796
  79.3289530  80.9117853  55.9298445  78.2660544  81.2711123  55.4116403
  79.4154048  79.8237709  56.6948508  80.2957157  79.5389215  57.0998358
  78.2454415  78.9726964  56.9100022  77.5524011  79.0601182  56.0732515
  78.6789037  77.5102733  57.0352626  79.3108405  77.4015448  57.9167013
  77.4673079  76.6080838  57.1679640  76.8350860  76.7159258  56.2866212
  77.7932820  75.5717034  57.2560303  76.9014204  76.8872079  58.0567619
  79.4262802  77.1307641  55.8748911  79.6974601  76.2133408  55.9548686
  77.4307509  79.3823528  58.1382632  76.2395970  79.6838641  58.0228106
  78.0553817  79.3937934  59.3169215  79.0514783  79.2404646  59.3831119
  77.2992407  79.5763328  60.5531089  76.5668351  78.7764245  60.6618652
  78.2376530  79.5453305  61.7564605  79.0139437  80.2651770  61.4970517
  77.6829855  79.9062388  62.6225952  78.8805479  78.2020429  62.0883091
  79.4150785  77.8328801  61.2130396  79.8518349  78.3651365  63.2419109
  79.3179132  78.7338539  64.1177385  80.3069795  77.4021101  63.4732644
  80.6295726  79.0768126  62.9648880  77.8237794  77.1669777  62.4175190
  77.1619403  77.0376193  61.5611692  78.3049868  76.2172003  62.6508935
  77.2432249  77.5005610  63.2776223  76.5059403  80.8766075  60.5628054
  75.4144052  80.9282899  61.1388350  77.0261525  81.9324561  59.9354004
  77.8708872  81.8540298  59.3873384  76.4146830  83.2494117  60.0792545
  76.3632781  83.5240343  61.1328385  77.2480074  84.2973560  59.3413628
  76.7372927  85.2582729  59.4038810  78.2227186  84.3724858  59.8234350
  77.4204328  83.9425526  57.9818136  77.9455431  84.6138864  57.5400334
  74.9788035  83.2897504  59.5764685  74.2392903  84.2136116  59.9328374
  74.5625607  82.3198903  58.7617395  75.2264549  81.6391918  58.4211616
  73.1884232  82.2453438  58.2813657  72.6611033  83.1692238  58.5190184
  73.1681474  82.0472773  56.7652732  72.1714597  82.3245099  56.4219731
  73.9011966  82.7358915  56.3450955  73.4845361  80.6320776  56.3110573
  74.3760515  80.2898591  56.8365928  72.6428325  79.9887423  56.5674885
  73.7271899  80.5746820  54.8124200  73.7138053  79.5336984  54.4895068
  72.9350107  81.1229298  54.3025417  75.0117226  81.1610942  54.4463457
  75.7920963  80.9534812  55.0529865  75.2200406  81.9368084  53.3889828
  74.2476889  82.2351167  52.5424008  73.3190774  81.8684517  52.6951670
  74.4386574  82.8280817  51.7474019  76.4382080  82.4251743  53.1747655
  77.1877618  82.2027109  53.8141239  76.6082815  83.0163193  52.3736904
  72.3949971  81.1403308  58.9693848  71.3980554  80.6638918  58.4192128
  72.8113288  80.7268996  60.1622014  73.6347524  81.1261903  60.5895653
  72.1187875  79.6604021  60.8650803  71.8042634  78.9027168  60.1473849
  73.0417163  79.0065726  61.8924276  73.3578224  79.7508809  62.6233052
  72.5090818  78.2026223  62.4004283  73.9175603  78.5991372  61.3874595
  70.8681168  80.1898933  61.5603095  70.7108136  81.3917581  61.7907956
  69.9707963  79.2639897  61.8925270  70.1330069  78.3065081  61.6150092
  68.7414490  79.5765355  62.6104054  68.8424325  80.5304140  63.1281093
  67.5557500  79.6658564  61.6478570  66.6383957  79.7796273  62.2254534
  67.7161439  80.8539352  60.7128614  68.6331093  80.7406359  60.1345559
  66.8635259  80.9015476  60.0354585  67.7669547  81.7726139  61.2972827
  67.4698577  78.4626284  60.8740413  66.7249730  78.5222508  60.2713869
  68.4895004  78.5018032  63.6621499  68.3921749  77.3177149  63.3158140
  68.3763324  78.8544127  64.9422462  68.3007629  80.1319490  65.5804619
  67.6589042  80.7680553  64.9709649  69.3074406  80.5492179  65.6046616
  67.7402300  79.8981067  66.9651238  66.6508195  79.9317781  66.9528781
  68.1183504  80.6419541  67.6664207  68.2532748  78.4977401  67.3229710
  67.5933643  77.9752957  68.0155525  69.2695091  78.4935744  67.7171156
  68.2210243  77.8158057  65.9645192  69.0806638  77.1472036  65.9188089
  66.9470998  77.0180584  65.7391648  65.8868689  77.5771402  65.4524037
  67.0588035  75.7004147  65.8695581  67.9603812  75.2827778  66.0507661
  65.9112191  74.8169162  65.6851173  65.1747083  75.2868253  65.0333224
  66.3330385  73.4633968  65.0893108  66.9997438  73.6445635  64.2462313
  67.0467899  72.6116604  66.1248885  66.3805069  72.4296698  66.9681246
  67.3343565  71.6600974  65.6777488  67.9384112  73.1331517  66.4729656
  65.1122374  72.7163878  64.5497153  65.4053043  71.6760755  64.4084254
  64.3344593  72.7740032  65.3111883  64.5828266  73.2729105  63.2448989
  65.3599493  73.2151987  62.4827640  63.7177645  72.6916144  62.9257413
  64.2891063  74.3131278  63.3855267  65.2122960  74.6463590  67.0291328
  65.8416375  74.2577239  68.0118877  63.9074090  74.9236467  67.1280795
  62.9707694  75.4244571  66.1795241  63.0801656  74.8385589  65.2669146
  63.2298722  76.4636190  65.9767747  61.5986145  75.2827508  66.7997500
  61.1728281  74.3039475  66.5789576  60.9273502  76.0607930  66.4362173
  61.8693034  75.4503460  68.3006845  61.1481535  74.9259976  68.9276619
  61.9260164  76.4944764  68.6083774  63.2362205  74.7970693  68.4281569
  63.8000618  75.3711072  69.1634539  63.1487388  73.3489254  68.8765264
  62.4488820  72.5407320  68.2579403  63.8587795  73.0124555  69.9467993
  64.4254074  73.7103208  70.4072516  63.8998173  71.6445485  70.4523685
  64.3500389  70.9852100  69.7102954  64.7375038  71.5845378  71.7325696
  64.7680431  70.5410032  72.0459416  65.7431377  71.9147775  71.4722960
  64.2014761  72.4407027  72.8717736  63.1146844  72.4639320  72.7914920
  64.4858436  71.9660332  73.8108812  64.7403229  73.8561680  72.8383338
  64.6581469  74.4952795  71.7681686  65.2448792  74.3299855  73.8779572
  62.5030157  71.0817313  70.7145006  61.6182976  71.8433392  70.9925531
  62.2488289  69.8784619  70.6521306  62.8271493  69.2899194  70.0696680
  61.0912861  69.2714231  71.3245415  60.1863295  69.7976996  71.0209206
  60.9374331  67.7907276  70.9716619  61.9104624  67.3269421  71.1335762
  60.2056301  67.3427772  71.6439006  60.5062550  67.5702488  69.5380738
  59.1916653  67.8091990  69.1309868  58.4806053  68.1745755  69.8719274
  58.7833907  67.5946036  67.8290149  57.7569719  67.7932393  67.5206156
  59.7073883  67.1261985  66.9050869  59.3106615  66.9006754  65.6092983
  58.3833009  67.0996327  65.4609136  61.0148148  66.8763733  67.2723692
  61.7361305  66.5116279  66.5410930  61.4090687  67.0945021  68.5909221
  62.4366635  66.8923472  68.8930519  61.1980373  69.4585688  72.8432300
  62.2938129  69.6642807  73.4113949  60.0448687  69.3893034  73.5243926
  59.1761960  69.1754774  73.0555798  60.0073419  69.6715791  74.9480910
  60.3325615  70.6958726  75.1301741  58.5790296  69.5055418  75.4922423
  58.3383215  68.5055011  75.1315797  58.6643822  69.4885976  76.5787632
  57.4634747  70.4804731  75.0812980  57.4052850  70.5220735  73.9936472
  56.1307471  70.0108950  75.6421390  56.1880191  69.9694831  76.7298447
  55.3459340  70.7070988  75.3463867  55.9013904  69.0189448  75.2528695
  57.7549863  71.9249652  75.5145108  58.6825314  72.2631999  75.0526050
  56.9359811  72.5715982  75.1995544  57.8536122  71.9666371  76.5992391
  60.9579217  68.7769856  75.7441159  61.4836147  69.1661321  76.7743032
  61.1899455  67.5479822  75.2617482  60.6211315  67.2354745  74.4878691
  62.1504266  66.5801520  75.8705477  62.2519538  65.7185578  75.2106637
  63.5519267  67.2064945  76.0866367  63.4317028  68.1705756  76.5807957
  64.1371369  66.5429414  76.7232892  64.2735960  67.4030614  74.7592073
  64.4463488  66.4550844  74.2497008  63.7267319  68.0757057  74.0984568
  65.6134349  68.0325770  75.1297043  65.5258459  69.1187770  75.1052787
  65.9019712  67.7142874  76.1314717  66.6391590  67.6007008  74.1626676
  66.6898090  66.5142442  74.0909234  66.4594823  68.0216481  73.1734159
  67.9457864  68.1306983  74.7054091  68.1126781  67.7404247  75.6218879
  68.6988792  67.8684943  74.0855701  67.8992159  69.1374523  74.7715651
  61.6460374  65.9571053  77.1791246  62.3568029  65.9084339  78.1948310
  60.4128913  65.4737609  77.1699691  59.8235558  65.5522465  76.3534992
  59.8480537  64.8379442  78.3875739  60.4872211  65.0655941  79.2406505
  58.4303309  65.3467926  78.6869742  57.8144504  65.1370396  77.8124491
  58.0525107  64.7836455  79.5403306  58.3773199  66.8529363  79.0023218
  58.7849680  67.4176693  78.1638706  57.3337779  67.1294477  79.1528661
  59.1658363  67.2130998  80.2643040  58.9373074  66.6303025  81.3311329
  60.1069741  68.1528779  80.1518149  60.6495149  68.4193153  80.9609885
  60.2722780  68.5932599  79.2580366  59.8523408  63.3217461  78.1545118
  59.4099732  62.8126287  77.0974387  60.3542374  62.5752106  79.1435242
  60.6586554  63.0285812  79.9931619  60.5793805  61.1520567  79.0065842
  60.2156488  60.8041968  78.0397378  62.0922782  60.8138091  79.1435622
  62.4426906  61.1557437  80.1174165  62.3233389  59.3173049  79.0194171
  61.9735749  58.9746910  78.0455683  63.3876930  59.1040440  79.1182649
  61.7747533  58.7980178  79.8052249  62.9071080  61.5525679  78.0762100
  62.6272674  61.1255462  77.1131718  62.6009212  62.5980585  78.1122457
  64.4276266  61.4590941  78.2540746  64.7346414  60.4138586  78.2176835
  64.9220863  62.0105289  77.4543693  64.7082950  61.8863691  79.2167590
  59.7258226  60.3316682  80.0044258  59.9869203  60.3196117  81.2185463
  58.6918677  59.6323542  79.5061547  58.0380204  59.6130321  78.1997729
  58.5525823  58.8894581  77.5675017  58.1219702  60.6057339  77.7575121
  56.6025823  59.2248205  78.4773031  56.1503460  58.7605992  77.6009013
  56.0158385  60.0955044  78.7701216  56.7230676  58.2303122  79.6383502
  57.0029629  57.2408681  79.2767454  55.8394882  58.1487044  80.2713804
  57.8724375  58.8362409  80.4276875  57.4361445  59.4847308  81.1874293
  58.7650708  57.7809499  81.1058289  59.5645388  57.1079377  80.4539567
  58.6424670  57.6218968  82.4206431  58.0655460  58.2417173  82.9711738
  59.4330850  56.6107729  83.1173357  60.4771417  56.6911458  82.8147053
  59.3472445  56.7993429  84.6406485  58.3025422  56.9263957  84.9244687
  59.7465758  55.9043744  85.1177919  60.1327468  58.0019402  85.1309675
  61.0045075  58.5117914  84.4168533  59.8279083  58.4616666  86.3280853
  60.3219167  59.2603226  86.6998435  59.1017267  58.0131492  86.8680790
  59.0335658  55.1865245  82.7076507  59.5968636  54.1737500  83.2084944
  58.0644277  55.0681772  81.8016820  57.5371207  55.8839674  81.5250359
  57.6518239  53.7490500  81.2646890  57.5070256  53.0542736  82.0919849
  56.3412053  53.8453149  80.4694393  56.0463172  52.8374871  80.1771666
  55.5787736  54.2717489  81.1213227  56.4776410  54.6525924  79.3106730
  55.6394487  54.6866281  78.8439019  58.7559496  53.1184612  80.4378968
  58.6364412  51.9824401  79.9402517  59.8720896  53.8515306  80.2688417
  59.9203013  54.7541194  80.7195174  61.0203685  53.4146374  79.4555976
  60.7777157  52.5173351  78.8863284  61.3597890  54.5384235  78.4753259
  61.6415792  55.4398756  79.0194562  62.1806718  54.2354484  77.8253585
  60.0018822  55.0179904  77.3785627  60.6750971  55.9633450  76.7289593
  62.2836530  53.0903586  80.2959603  63.4196211  53.2643671  79.8464311
  62.0870471  52.6119571  81.5313372  61.1432235  52.4331667  81.8433155
  63.1839545  52.4157078  82.4856172  63.9152571  53.2200790  82.4063537
  62.6817709  52.3462290  83.9477969  61.9395368  51.5515377  84.0229877
  63.8218132  52.0654024  84.9083274  64.5642775  52.8599643  84.8340369
  63.4369517  52.0225731  85.9272227  64.2845454  51.1115959  84.6548836
  61.9812090  53.6513236  84.3384846  61.1289186  53.8180904  83.6797799
  61.6349309  53.5837925  85.3698094  62.6805919  54.4820363  84.2442463
  64.0002845  51.1461775  82.1324117  63.4469438  50.0200231  82.0236716
  65.3046532  51.2943380  81.9506849  65.7383980  52.2064443  81.9558805
  66.1296826  50.1374626  81.6152048  65.6830237  49.2388577  82.0407682
  66.2445030  49.9554989  80.0942428  66.6580182  50.8715683  79.6724357
  66.9263118  49.1272235  79.9013779  64.9881755  49.6833699  79.4931256
  65.1030159  49.5767236  78.5460047  67.4932575  50.1913886  82.2582200
  67.6051575  50.4805248  83.4489322  68.4892635  49.9440245  81.5873861
  68.1461535  49.9634524  80.6376507  69.8949663  49.6597821  81.8050715
  70.1952939  50.1142483  82.7491917  70.0215690  48.5788886  81.8662291
  70.7760684  50.1971090  80.6973689  70.6006189  51.3279059  80.2456724
  71.7298283  49.3832394  80.2578483  71.8936228  48.5150254  80.7472110
  72.5818287  49.7070130  79.1225576  72.3532397  50.7030721  78.7434621
  74.0519234  49.6682072  79.5382749  74.2338106  48.7846847  80.1501613
  74.2913065  50.5630089  80.1128405  75.2078205  49.6245171  78.1693022
  72.3142182  48.7222405  77.9935326  72.3438711  47.5064534  78.2047212
  72.0592097  49.2503985  76.7985745  72.0205518  50.2560068  76.7128030
  71.7606102  48.4450427  75.6222389  71.4382329  47.4489142  75.9253893
  70.6396401  49.0951491  74.8079332  70.8910607  50.1278922  74.5664202
  70.4636721  48.5396393  73.8867687  69.0528398  49.1540840  75.6680434
  68.3849321  49.7537793  74.6866347  72.9753792  48.2076371  74.7338101
  72.8208447  47.6872404  73.6244791  74.1761662  48.5830687  75.1797055
  74.3115853  48.9284152  76.1191189  75.3250456  48.5600955  74.2780374
  75.1138835  49.1876247  73.4121750  76.5621790  49.1111030  74.9914193
  77.4399708  48.9664389  74.3616147  76.7023400  48.5847867  75.9355835
  76.5021846  50.9027243  75.3643841  75.5833357  47.1481631  73.7613325
  75.8943691  46.9604641  72.5792711  75.4960859  46.1479708  74.6419072
  75.1860730  46.3092981  75.5895173  75.8489142  44.7901157  74.2528432
  76.9232378  44.7552709  74.0719736  75.5979802  44.1228339  75.0773833
  75.1231593  44.3267932  73.0047610  75.7392736  43.8466928  72.0479372
  73.7949001  44.4629917  73.0013523  73.3094311  44.8483995  73.7987731
  73.0024380  43.9994047  71.8663898  73.2478921  42.9614716  71.6415648
  71.5138746  44.0895661  72.1887190  71.3060025  43.5622447  73.1197510
  71.1846492  45.1249129  72.2768536  70.6623168  43.4595065  71.1432358
  70.3437856  42.1401602  71.0279136  70.7484975  41.4665955  71.7833067
  69.5429208  41.9430658  69.9295315  69.1633942  41.0568833  69.6283014
  69.3404927  43.1468635  69.3091962  68.6069983  43.4559125  68.1690876
  68.0922144  42.6504374  67.6453452  68.5789970  44.7638504  67.7751327
  68.0143813  45.0452104  66.8862314  69.2595449  45.7546569  68.4869584
  69.2292226  46.7949655  68.1630168  69.9878127  45.4497111  69.6165863
  70.4974978  46.2603992  70.1372653  70.0346919  44.1227191  70.0457628
  73.3224884  44.7962049  70.6110946  73.3289552  44.2456624  69.5048929
  73.5675099  46.0971133  70.7562391  73.4777432  46.5525808  71.6532288
  73.9322054  46.9099756  69.6013720  73.1554445  46.8542976  68.8387177
  74.0880249  48.3661694  70.0337488  74.8216861  48.3318833  70.8391463
  74.4982291  48.9254097  69.1928666  72.8180240  49.0539931  70.5312530
  72.3741123  48.4537780  71.3254728  73.1460370  50.4358610  71.0652471
  73.5895920  51.0368520  70.2714162  72.2329729  50.9162181  71.4169172
  73.8515157  50.3486111  71.8915568  71.7919896  49.1452875  69.4202010
  71.5387632  48.1427117  69.0755016  70.8943015  49.6381217  69.7935263
  72.2036985  49.7208014  68.5911181  75.2215228  46.3934185  68.9782826
  75.3228283  46.2352305  67.7540747  76.2242461  46.1310755  69.8173107
  76.1288497  46.3005315  70.8084129  77.5031416  45.6403474  69.3203056
  77.8989203  46.3064454  68.5536428  78.5096978  45.5620883  70.4655436
  78.1398310  44.8605064  71.2132613  79.8614676  45.0951929  69.9594644
  80.2322145  45.7965736  69.2119944  80.5642726  45.0462280  70.7911896
  79.7605537  44.1068318  69.5110680  78.6487582  46.8529210  71.0702452
  79.2818450  46.8025051  71.7901478  77.3454394  44.2795152  68.6622883
  77.9704227  44.0011966  67.6310034  76.4881213  43.4269353  69.2277706
  76.0329588  43.6344969  70.1051785  76.2392463  42.1295903  68.6096393
  77.1840813  41.6168839  68.4293115  75.3802294  41.2616012  69.5282131
  74.6017721  41.9009412  69.9445635  74.9230284  40.4886458  68.9104694
  76.1597996  40.6104565  70.6596860  76.8430820  39.8796775  70.2270337
  76.7324504  41.3851390  71.1696274  75.2438563  39.9191705  71.6562684
  75.8347263  39.6434896  72.5297509  74.4662666  40.6235153  71.9518226
  74.6024835  38.6759205  71.0667072  74.0937139  38.9567502  70.1445419
  75.3904272  37.9570890  70.8419292  73.6249281  38.0622986  72.0047724
  72.8944855  38.7280747  72.2128482  73.2202533  37.2405366  71.5792779
  74.0962493  37.8016135  72.8591720  75.5741504  42.2868483  67.2489992
  75.9423878  41.5973579  66.2954590  74.5975459  43.1860853  67.1368093
  74.2590107  43.7030351  67.9357187  73.9537504  43.4079667  65.8454232
  73.5516755  42.4763862  65.4471861  72.8088784  44.4082596  65.9977322
  73.2210390  45.3709792  66.3000482  72.0525408  44.5696751  64.6854622
  71.6396688  43.6073936  64.3827238  71.2422373  45.2865118  64.8183255
  72.7337153  44.9307912  63.9149448  71.9086564  43.9567317  67.0162217
  71.1901912  44.5864505  67.1103624  74.9593428  43.9080301  64.8161911
  75.0108248  43.4104801  63.6799492  75.8238809  44.8396092  65.2192893
  75.7958060  45.2178339  66.1553754  76.7905794  45.3949117  64.2773550
  76.3123165  45.7404170  63.3608454  77.5464186  46.5748581  64.9124256
  77.9304051  46.2694412  65.8857570  78.7025002  47.0008537  64.0232148
  78.3192282  47.3068714  63.0497895  79.2281430  47.8365230  64.4852288
  79.3906494  46.1651961  63.8958228  76.6037166  47.7399616  65.1576257
  75.8060093  47.4270079  65.8312911  77.1551308  48.5657705  65.6071606
  76.1724227  48.0645437  64.2106659  77.7449379  44.3064468  63.8121830
  77.9987609  44.1512068  62.6107724  78.2980819  43.5384234  64.7517690
  78.1073167  43.6588435  65.7362521  79.2774990  42.5345506  64.3554971
  80.0288809  42.9851053  63.7070183  79.9753217  41.9612265  65.5852060
  79.2050375  41.6203483  66.2769888  80.5748843  41.1103070  65.2618473
  80.8667540  42.9723872  66.2800755  81.7327801  43.1551023  65.6439035
  80.3023409  43.8972634  66.3990041  81.3306815  42.4873788  67.6356230
  81.7993747  43.3178651  68.1635607  80.4643836  42.1415852  68.1995859
  82.3260034  41.3534100  67.4935382  82.5144179  40.9306259  68.4803787
  81.8925969  40.5893427  66.8482019  83.6062632  41.8299388  66.9061488
  84.0082475  42.5376407  67.5042009  84.2481124  41.0544760  66.8237650
  83.4319578  42.2213495  65.9915373  78.6214568  41.4318290  63.5314373
  79.2095982  40.9474827  62.5578957  77.4013060  41.0228870  63.8970049
  76.9727449  41.3657722  64.7448637  76.6813854  40.0311902  63.1123918
  77.3156732  39.1610386  62.9432343  75.4207638  39.5806974  63.8516018
  74.8719853  40.4807405  64.1288451  74.8275330  38.9962302  63.1483413
  75.6939692  38.7509635  65.0954560  76.2164345  37.8448655  64.7886706
  76.3374532  39.3359706  65.7525664  74.4239682  38.3760549  65.8348721
  73.3544370  38.3220342  65.1924035  74.4955901  38.1330622  67.0586064
  76.3085159  40.5564704  61.7381728  75.9290804  39.7629731  60.8699425
  76.4062291  41.8676533  61.5230456  76.5896021  42.5099951  62.2805881
  76.1984608  42.4143563  60.1891831  75.5465755  41.7602985  59.6100863
  75.5534152  43.7992863  60.2713433  76.1291093  44.4184961  60.9592792
  75.5266366  44.4567612  58.8984127  74.9506884  43.8383169  58.2100015
  75.0645724  45.4409811  58.9752703  76.5454507  44.5623659  58.5256313
  74.2136573  43.6780679  60.7668387  73.8112493  44.5481879  60.8174282
  77.5048835  42.5031891  59.4082442  77.5394088  42.2750710  58.1998849
  78.6112005  42.8368982  60.0797513  78.5750284  43.0953201  61.0554608
  79.9004246  42.8933789  59.3958617  79.7835588  43.3404994  58.4086814
  80.8851368  43.7434268  60.2047860  80.9858389  43.3030341  61.1967606
  82.2632080  43.8076623  59.5315293  82.1633729  44.2484017  58.5396214
  82.9345345  44.4192041  60.1343863  82.6716200  42.8010555  59.4418464
  80.3757722  45.0760884  60.3270549  80.9926080  45.6091607  60.8339552
  80.4750042  41.4997999  59.1623584  81.0950954  41.2504412  58.1223333
  80.2771709  40.5803828  60.1033702  79.8115821  40.8296177  60.9643048
  80.7631800  39.2126117  59.9503792  81.5469201  39.1830624  59.1934265
  81.3387225  38.6933635  61.2713040  80.5380363  38.7502729  62.0087063
  81.6093658  37.6499849  61.1093988  82.5530123  39.4594396  61.7805838
  82.2755241  40.5091073  61.8770144  82.8175016  39.0625636  62.7607046
  83.7467440  39.3344072  60.8437847  83.4572499  39.6824446  59.8522393
  84.5606124  39.9529415  61.2221139  84.2167516  37.9576974  60.7370652
  83.9057203  37.4284581  59.9350274  85.0153901  37.3653349  61.6154570
  85.4594767  38.0003505  62.6880442  85.1894919  38.9598591  62.8509901
  86.0663792  37.5226120  63.3388398  85.3791602  36.1016573  61.4121854
  85.0459321  35.6084558  60.5962127  85.9868349  35.6414685  62.0747988
  79.6507541  38.2899089  59.4699065  79.1610210  38.0921244  58.3927989
  79.3765658  37.6899786  60.8993394  79.9776842  37.8610538  61.6927430
  78.2315913  36.7992813  61.0768798  77.4399783  37.4404954  61.4645557
  77.7878414  36.2402178  59.7101223  77.7282748  37.0630119  58.9976885
  78.7808525  35.1928225  59.1979583  78.8406125  34.3694373  59.9096923
  78.4448359  34.8142841  58.2326083  79.7648734  35.6482215  59.0865343
  76.5749670  35.4969001  59.8757952  76.2954965  35.1471314  59.0265847
  78.5800951  35.6672698  62.0377509  78.3088827  34.4897134  61.7901352
  79.1958124  36.0303274  63.1566175  79.4621618  36.9973347  63.2751684
  79.6011387  35.0757712  64.1715057  78.7463202  34.4382686  64.3972819
  80.7825793  34.1835856  63.7512236  80.9207835  33.4525656  64.5478468
  80.4782694  33.6719855  62.8381185  82.0988549  34.9251079  63.5057074
  81.9173772  35.6858957  62.7465179  82.3728919  35.4071269  64.4441426
  83.2337811  34.0159431  63.0518826  84.2648682  33.9169188  63.7633314
  83.0924935  33.3865311  61.9818095  79.8804333  35.8896868  65.4252237
  79.5248616  37.0679919  65.5155115  80.5245769  35.2823624  66.4240376
  79.3300637  34.5318497  66.5171494  79.5531722  33.5138143  66.1978894
  78.6059796  34.9758545  65.8340236  78.8810474  34.6028880  67.9588799
  79.3312385  33.8017720  68.5450882  77.7952807  34.5384048  68.0299711
  79.3788963  35.9796844  68.4165917  79.5827487  36.0519841  69.4849156
  78.6930511  36.7745475  68.1234902  80.6767526  36.0994376  67.6335200
  80.7684725  37.1390220  67.3189570  81.8936033  35.7130590  68.4751124
  82.9195815  35.2474716  67.9710547  81.7762333  35.9115651  69.7861844
  80.9205087  36.3150187  70.1398225  82.8335734  35.5889063  70.7378047
  82.7083659  34.5940231  71.1651568  84.2203181  35.6842052  70.0472902
  84.1764977  35.1531518  69.0964157  84.6042480  37.1373517  69.7996779
  84.6487272  37.6689757  70.7502031  85.5796916  37.1784529  69.3149912
  83.8594432  37.6059301  69.1564055  85.3042195  34.9790144  70.8608064
  86.2022405  34.9453504  70.2439386  85.4938701  35.5879208  71.7447550
  84.9326835  33.5782970  71.2851575  84.7433237  32.9686298  70.4016709
  85.7511974  33.1425141  71.8580689  84.0349514  33.6112001  71.9024858
  82.7669102  36.5690971  71.9155242  82.5279548  37.7639858  71.7356516
  82.9740968  36.0871723  73.1344935  83.0169788  35.0943224  73.3147975
  83.0795963  37.0029530  74.2693599  83.2170276  36.4281594  75.1852333
  84.2678099  37.9609275  74.1086172  84.1811760  38.7598095  74.8450827
  85.1875061  37.4030990  74.2849302  84.3347922  38.5821750  72.7242647
  84.3847886  37.8752916  71.7160513  84.3294602  39.9147961  72.6697709
  84.3723754  40.3807342  71.7746956  84.2825305  40.4519007  73.5238301
  81.7786876  37.7857699  74.4325663  81.6517808  38.9439704  74.0392363
  80.7318521  37.0835554  75.0668921  80.6781116  36.3020655  75.7044537
  79.4866838  37.6692256  74.5847923  79.6224392  38.0724871  73.5812736
  78.3520687  36.6274446  74.5474551  77.4327885  37.1181201  74.2276713
  78.6884333  35.5004673  73.5802228  79.6074111  35.0089863  73.8996378
  77.8744177  34.7756584  73.5688347  78.8245896  35.9089070  72.5788543
  78.1425565  36.0895644  75.8585334  77.4349617  35.4414526  75.8291895
  79.0537831  38.8491416  75.4511520  77.9481819  39.3671776  75.2996602
  79.9278656  39.2665108  76.3623467  80.7618893  38.7202014  76.5237464
  79.7204016  40.4629187  77.1652925  78.6836140  40.7887756  77.0816979
  80.0329099  40.2002621  78.6396083  81.0873490  39.9418883  78.7370837
  79.7337214  41.4344992  79.4783949  78.6792899  41.6932276  79.3817857
  79.9623156  41.2280215  80.5239621  80.3449825  42.2674346  79.1310060
  79.2377736  39.1056147  79.1115610  79.4351727  38.9422492  80.0367343
  80.6114947  41.5735955  76.6275268  81.8240487  41.3858715  76.4818367
  80.0114337  42.7232978  76.3333475  79.0214910  42.8200383  76.5087154
  80.7174245  43.8426064  75.7297365  81.7913828  43.6619203  75.7751811
  80.3131895  44.0251555  74.2628375  79.2313601  44.1583168  74.2593090
  80.7918107  44.9340726  73.8982946  80.6806091  42.8679618  73.3643697
  82.0068547  42.5661406  73.0940319  82.7895906  43.1757655  73.5454536
  82.3428520  41.5123868  72.2675697  83.3887658  41.2808572  72.0661740
  81.3471179  40.7527916  71.6955332  81.6755582  39.7032127  70.8718025
  82.6231789  39.5914954  70.7662860  80.0241920  41.0371300  71.9442993
  79.2362159  40.4354694  71.4913108  79.6979771  42.0896082  72.7715856
  78.6518895  42.3228560  72.9700706  80.4178801  45.1101826  76.5187801
  79.6513911  45.1037597  77.4857813  81.0362425  46.2086658  76.0955535
  81.7257974  46.1291511  75.3618706  80.8182274  47.5150987  76.6989519
  79.8158094  47.5617884  77.1244840  81.8378920  47.7698658  77.8169929
  81.6443573  48.7526237  78.2469121  81.7103703  47.0065553  78.5845835
  83.1637125  47.7243052  77.3222150  83.7791924  47.8865524  78.0408667
  80.8870511  48.5615457  75.5905396  80.8797001  48.2351717  74.4007585
  80.9520029  49.8338178  75.9856358  80.9700437  50.0766380  76.9658461
  80.9548712  50.9142268  75.0052761  80.0675317  50.8502065  74.3754911
  80.9509629  52.2628093  75.7170520  80.1943094  52.1963775  76.4988202
  81.9323214  52.3960285  76.1723411  80.6476702  53.4402188  74.8224905
  79.6520196  53.3709933  73.8607173  79.0863429  52.4453514  73.7544331
  79.3727482  54.4445771  73.0481570  78.5837750  54.3800316  72.2988527
  80.1027481  55.6020376  73.1797112  79.8270298  56.6766163  72.3677722
  79.1107324  56.5070778  71.7515138  81.0996402  55.6941960  74.1234140
  81.6746395  56.6137481  74.2325026  81.3683943  54.6152156  74.9323321
  82.1619427  54.6766441  75.6770520  82.1616757  50.8218193  74.0815045
  82.0418707  51.0123799  72.8631801  83.3382643  50.5561329  74.6510412
  83.4093930  50.4275506  75.6502943  84.5597898  50.4999895  73.8586402
  84.7879344  51.4768937  73.4323685  85.7296458  50.0679019  74.7444162
  85.6240421  49.0076408  74.9741868  87.0546154  50.3034981  74.0408823
  87.1611488  51.3636826  73.8111889  87.8720566  49.9888979  74.6896625
  87.0830393  49.7272632  73.1160871  85.7047420  50.8125729  75.9671091
  86.4392156  50.5407614  76.5223274  84.3981855  49.5505748  72.6800017
  84.7455269  49.8866659  71.5428264  83.8729670  48.3527965  72.9371839
  83.6338904  48.0868311  73.8817495  83.6891490  47.3733114  71.8774038
  84.5699440  47.3476435  71.2358117  83.4827538  45.9851563  72.4784034
  82.8726373  46.0946866  73.3749860  82.9481832  45.3781925  71.7476988
  84.7899260  45.3084090  72.8370590  85.7000928  45.2823000  71.9841295
  84.9087526  44.8012206  73.9724625  82.5258509  47.7193987  70.9614627
  82.3513094  47.0538785  69.9365821  81.7257677  48.7295311  71.3039555
  81.7582967  49.1338730  72.2289144  80.7393478  49.2412976  70.3601844
  80.3398523  48.4250219  69.7583567  79.5841641  49.9025240  71.1160442
  79.1554928  49.1950235  71.8258212  79.9426738  50.7815720  71.6516237
  78.4526618  50.3669493  70.2327703  78.2927415  49.8744444  68.9502254
  78.9992876  49.1354167  68.5724285  77.2562318  50.3067897  68.1529065
  77.1421235  49.9072069  67.1452292  76.3668632  51.2404457  68.6262943
  75.5474737  51.5844079  67.9951123  76.5112235  51.7402098  69.8960647
  75.8058721  52.4804226  70.2737744  77.5480921  51.3062539  70.6939097
  77.6630993  51.7038472  71.7022711  81.3779847  50.2288340  69.3934638
  81.1844674  50.1351920  68.1745798  82.1521175  51.1796476  69.9190198
  82.2680673  51.2931732  70.9158983  82.7956934  52.1439590  69.0336761
  82.0584519  52.5629465  68.3488232  83.4195931  53.2863617  69.8395901
  83.3197604  54.1849631  69.2307812  82.8189434  53.3916378  70.7430484
  84.8777104  53.0927056  70.2208843  84.9647561  52.1834540  70.8156829
  85.4745944  52.9918174  69.3144334  85.4176314  54.2523994  71.0286952
  84.6626014  54.9771186  71.6735927  86.7313013  54.4391021  70.9928107
  87.1447136  55.1990147  71.5140826  87.3114285  53.8203935  70.4444008
  83.8384450  51.4629970  68.1572779  83.9868715  51.8109992  66.9813212
  84.5666270  50.4885048  68.7065226  84.4659820  50.2425786  69.6809405
  85.5764156  49.7910145  67.9179496  86.2540329  50.5089607  67.4559027
  86.3885958  48.8645209  68.8209788  86.8535840  49.4901058  69.5829031
  85.6826306  48.1815724  69.2935193  87.4581582  48.0666998  68.1007123
  86.9757065  47.3959808  67.3897432  88.1085725  48.7573694  67.5640198
  88.2840620  47.2536602  69.0832013  88.8322419  47.9426334  69.7257848
  87.6059277  46.6534503  69.6898160  89.2637214  46.3417385  68.3676789
  88.6968750  45.6758086  67.7170461  89.9272007  46.9608171  67.7638277
  90.0712476  45.5338526  69.3214676  89.4566693  44.9598087  69.8808126
  90.7082124  44.9427345  68.8067297  90.5969055  46.1507253  69.9241705
  84.9521946  49.0017193  66.7753739  85.5772951  48.8415167  65.7216706
  83.7298030  48.5016286  66.9584836  83.2670436  48.5587454  67.8544137
  83.0518688  47.8017872  65.8736130  83.7751361  47.1723197  65.3551979
  81.9454307  46.9127882  66.4348630  81.2086202  47.5298171  66.9491447
  81.4622739  46.3746048  65.6193764  82.3741046  46.1981569  67.1374582
  82.4782511  48.7759468  64.8530045  82.5537719  48.5295755  63.6406218
  81.9023460  49.8855168  65.3203264  81.7761644  50.0469479  66.3093246
  81.3565938  50.8627034  64.3849960  80.6982396  50.3877799  63.6575919
  80.5616718  51.9453195  65.1339916  81.1959448  52.3873741  65.9023566
  80.1104369  53.0249710  64.1684550  79.4756975  52.5837264  63.4000085
  79.5486604  53.7859163  64.7101836  80.9822867  53.4820902  63.7004575
  79.3647352  51.3289948  65.8276604  79.7044271  50.5782381  66.5411559
  78.8098855  52.1053531  66.3544517  78.7172167  50.8591812  65.0873254
  82.4685388  51.4696246  63.5437839  82.2605233  51.7981987  62.3690964
  83.6601493  51.6334871  64.1218129  83.7969976  51.4394667  65.1035094
  84.7865430  52.1573597  63.3567137  84.5455699  53.1462921  62.9667856
  86.0188499  52.2727751  64.2528035  85.9757553  51.4822001  65.0019586
  86.9129060  52.1458057  63.6423591  86.1031581  53.6095913  64.9633999
  87.1074397  53.9261594  65.5988386  85.0420656  54.3997049  64.8636939
  85.0437214  55.3020217  65.3174796  84.2375026  54.0952514  64.3344612
  85.0816163  51.2754578  62.1510824  85.2010108  51.7674420  61.0232644
  85.2022218  49.9636539  62.3692974  85.1490074  49.5737340  63.2994748
  85.4815502  49.0627285  61.2568123  86.3480333  49.4202273  60.7004843
  85.7783272  47.6546533  61.7709216  84.9601462  47.3736580  62.4340361
  85.7891655  46.9906828  60.9065572  87.0940954  47.5370736  62.5145169
  87.8886637  47.9247547  61.8769705  87.0335656  48.1357161  63.4233983
  87.3963433  46.0936106  62.8785603  86.5570845  45.6958165  63.4490895
  87.5141052  45.5203959  61.9589645  88.6646617  45.9889409  63.7054494
  88.5148673  46.5422073  64.6325732  88.8376278  44.9373805  63.9343659
  89.8452645  46.5403389  62.9838212  89.6853727  47.5148444  62.7719879
  90.6664194  46.4525146  63.5652776  89.9844986  46.0275291  62.1249038
  84.3265737  49.0305236  60.2680994  84.5466195  48.9855766  59.0510502
  83.0867813  49.0443172  60.7627827  82.8988557  49.0260382  61.7549768
  81.9546944  49.0221700  59.8443543  82.0147235  48.1415953  59.2047576
  80.6397016  48.9736077  60.6194760  80.6472746  48.0034509  61.1163036
  80.6372101  49.7650404  61.3689612  79.3849255  49.0912827  59.7490384
  79.3925652  50.0607055  59.2507797  79.3444027  47.9858142  58.7056792
  79.3362742  47.0160293  59.2032234  78.4444173  48.0902505  58.0996925
  80.2234296  48.0576236  58.0651672  78.1343062  49.0564577  60.6040119
  78.1524520  49.8873422  61.3092785  77.2547731  49.1414194  59.9658080
  78.0948280  48.1155259  61.1528178  81.9888776  50.2332657  58.9214867
  81.8198007  50.1080967  57.7034515  82.2245207  51.4198616  59.4852070
  82.2963349  51.5203255  60.4876286  82.3325578  52.6185937  58.6603535
  81.4345658  52.7364710  58.0538763  82.4879498  53.8526152  59.5475295
  83.2810192  53.5782880  60.2431476  82.8280904  54.6720973  58.9143996
  81.2559355  54.2931062  60.3300909  80.8235812  53.4301810  60.8365794
  81.6437550  55.3395788  61.3569157  82.0757902  56.2030631  60.8511100
  80.7587160  55.6497970  61.9124077  82.3758997  54.9190917  62.0463033
  80.1951986  54.8337214  59.3884957  79.9063875  54.0564347  58.6810262
  79.3224199  55.1437471  59.9631630  80.5939942  55.6897477  58.8441796
  83.5050355  52.5110727  57.6947339  83.3774587  52.8229437  56.5052607
  84.6630678  52.0700292  58.1924687  84.7528334  51.8170966  59.1661558
  85.8482420  51.9966586  57.3474292  86.1034027  52.9800721  56.9525999
  87.0340811  51.4732179  58.1593191  86.7903611  50.4801784  58.5369080
  88.2854362  51.3952110  57.3005465  88.5300646  52.3880241  56.9229505
  89.1151837  51.0203376  57.8997862  88.1098710  50.7212421  56.4620698
  87.2768174  52.3408724  59.2736937  88.0214681  52.0095358  59.7809528
  85.6040107  51.1125632  56.1343355  86.0608977  51.4225897  55.0288840
  84.8852755  50.0080574  56.3187336  84.5256533  49.7866705  57.2362079
  84.6489609  49.0614626  55.2377087  85.4746025  49.1674911  54.5340233
  84.6544268  47.6315636  55.7868397  83.8276713  47.5072230  56.4862072
  84.5429507  46.9253938  54.9640411  85.5965525  47.4430885  56.3015974
  83.3495010  49.3016372  54.4781594  83.0859079  48.5859704  53.5068712
  82.5317451  50.2788232  54.8762959  82.7821443  50.8672673  55.6580460
  81.2308962  50.4802189  54.2479537  81.0233516  49.6750584  53.5431552
  80.1378221  50.4849205  55.3216854  80.2612943  51.3704513  55.9451348
  79.1644580  50.5186190  54.8322706  80.2198777  49.3251603  56.1285392
  79.5276016  49.3481588  56.7932382  81.1565899  51.7571335  53.4200329
  80.8505895  51.6945262  52.2265535  81.4156409  52.9165539  54.0157308
  81.6857797  52.9478261  54.9884313  81.2588783  54.1815052  53.2986696
  80.2155184  54.3105584  53.0108425  81.6740642  55.3645479  54.1756323
  82.4046916  54.9355245  54.8613595  82.1576056  56.1201164  53.5564360
  80.5408017  56.0106823  54.9767655  79.6816581  56.1519774  54.3210150
  80.1429652  55.1322576  56.1493035  81.0015321  54.9908812  56.8057899
  79.3362562  55.6104118  56.7049022  79.8050613  54.1638867  55.7802790
  80.9353988  57.4014577  55.4488872  81.1566909  58.0294885  54.5859234
  80.1140681  57.8399570  56.0156635  81.8186572  57.3331469  56.0839362
  82.0665111  54.1835646  52.0051685  81.6677732  54.5480257  51.1635788
  82.9971846  53.8184175  52.0028186  76.5397475  51.4580368  77.6372471
  42.6185836  53.1515395  34.0043217  43.2389881  52.6470377  34.6213121
  41.9663527  52.4982311  33.5945860  42.2771727  53.9708830  34.4862079
  43.4053142  53.6609171  32.8887544  43.0334437  53.2458972  31.9519673
  43.3430487  55.1967940  32.8054050  43.8580401  55.5224997  31.9016351
  41.9003476  55.6737915  32.7658841  41.3848019  55.3488389  33.6696086
  41.8783936  56.7619802  32.7070405  41.4018229  55.2530918  31.8926227
  44.0040049  55.7674311  33.9415688  43.9639361  56.7250682  33.8874752
  44.8603877  53.2239021  33.0156156  45.1935871  52.3790990  33.8455282
  45.7261937  53.8045190  32.1819951  45.4236152  54.4932188  31.5080232
  47.1301534  53.4090119  32.1838145  47.2140950  52.3222509  32.1856864
  47.8221984  53.9503791  30.9323932  47.5910293  55.0109559  30.8332123
  48.8986953  53.8227910  31.0463044  47.3808569  53.2379949  29.6686161
  47.7931116  52.1103140  29.4000442  46.5339388  53.8956984  28.8844403
  46.2066930  53.4688736  28.0295540  46.2211802  54.8195399  29.1467375
  47.8441972  53.8929135  33.4401642  48.6196503  53.1447355  34.0455634
  47.6006748  55.1407440  33.8454714  46.9880995  55.7525605  33.3253450
  48.2794144  55.6773876  35.0212861  49.3551687  55.5249194  34.9340780
  48.0069948  57.1755675  35.1426686  46.9271189  57.3164724  35.0967011
  48.3736230  57.4967823  36.1176069  48.6726164  58.0024665  34.0535167
  49.7159246  57.6969811  33.9742232  48.1645398  57.8069218  33.1092061
  48.6237150  59.4926865  34.3306210  47.8489287  59.9556364  35.1664568
  49.4552925  60.2525514  33.6262275  49.4653519  61.2522451  33.7697987
  50.0735910  59.8270268  32.9504041  47.8559634  54.9432171  36.2879762
  48.6843762  54.6811711  37.1689184  46.5681217  54.6088021  36.4014234
  45.8838722  54.9166608  35.7253132  46.1080128  53.8300259  37.5451805
  46.3600645  54.3438359  38.4728488  44.5913683  53.6536138  37.4811782
  44.4014377  53.3862392  36.4416896  44.3169840  52.8190610  38.1264184
  43.7568952  54.8802534  37.8523061  44.2414119  55.7712320  37.4529297
  42.3533342  54.7668789  37.2788537  41.8679828  53.8763230  37.6781571
  41.7755101  55.6492212  37.5539755  42.4088571  54.6936969  36.1927312
  43.7078753  55.0487703  39.3613323  44.7195210  55.1777202  39.7460977
  43.1104766  55.9258328  39.6102849  43.2584080  54.1638376  39.8118568
  46.7988130  52.4740181  37.5944548  47.2290733  52.0242606  38.6627709
  46.9155443  51.8079814  36.4433883  46.4945904  52.1551496  35.5934640
  47.6101128  50.5260491  36.3975593  47.1618845  49.8316950  37.1082372
  47.5040207  49.9266091  34.9961179  46.4479007  49.9268171  34.7264705
  48.0505188  50.5869595  34.3227850  48.0562407  48.5147217  34.8795670
  49.1367309  48.5484275  35.0192296  47.6086671  47.8984773  35.6593251
  47.7610274  47.8822316  33.5325943  47.0569117  48.4601082  32.7050119
  48.3000693  46.6896456  33.3076265  48.1360838  46.2226934  32.4271915
  48.8715574  46.2550361  34.0179907  49.0696087  50.6817927  36.8021771
  49.6115371  49.8452267  37.5358017  49.7262127  51.7381987  36.3209842
  49.2863422  52.3760431  35.6730893  51.1234029  51.9660208  36.6751671
  51.7235574  51.0959070  36.4090547  51.6620923  53.1816518  35.9180040
  51.6753291  52.9229712  34.8592272  50.9647655  54.0031830  36.0820831
  53.0488260  53.6036369  36.3510308  54.1771394  52.9581409  35.8669072
  54.0531332  52.1355794  35.1625532  55.4435582  53.3427895  36.2639300
  56.3227211  52.8277779  35.8767124  55.5915334  54.3842374  37.1558384
  56.8468921  54.7742080  37.5576934  57.5474269  54.2546575  37.1565478
  54.4860162  55.0402246  37.6489212  54.6023430  55.8645628  38.3525084
  53.2259187  54.6487515  37.2476008  52.3462919  55.1625663  37.6353522
  51.2769042  52.1574919  38.1771009  52.1716706  51.5762946  38.8017294
  50.4047404  52.9674961  38.7790780  49.7158280  53.4868841  38.2539732
  50.4686666  53.1669186  40.2220282  51.4636637  53.5084613  40.5073850
  49.4489633  54.2200893  40.6522521  48.5152869  53.8847068  40.2007367
  49.3576781  54.1915975  41.7380492  49.7463505  55.6504095  40.2037634
  50.0116194  55.6429264  39.1465609  48.5306911  56.5365529  40.4141418
  48.2650825  56.5449059  41.4712516  48.7597771  57.5515788  40.0895761
  47.6936377  56.1499577  39.8327761  50.9491129  56.2064703  40.9446608
  51.8212392  55.5852898  40.7406267  51.1432613  57.2255559  40.6101879
  50.7476269  56.2083733  42.0158745  50.2300979  51.8598805  40.9640487
  50.9289628  51.5499458  41.9350241  49.2466368  51.0772443  40.5164609
  48.6909852  51.3463695  39.7171348  48.9078478  49.8396157  41.2086397
  48.7438193  50.0356597  42.2682437  47.6292443  49.2474586  40.6180459
  46.8610525  49.9664497  40.9027080  47.7313656  49.2361667  39.5328991
  47.2289137  47.8528082  41.1072203  48.0075480  47.1449049  40.8231386
  47.0553101  47.8355101  42.6170795  46.2764617  48.5428786  42.9019020
  46.7710394  46.8337434  42.9391888  47.9937529  48.1174865  43.0944837
  45.9543099  47.3921877  40.4167111  46.1166470  47.3563664  39.3394633
  45.6842290  46.3992286  40.7761411  45.1473597  48.0904131  40.6389982
  50.0439565  48.8268117  41.1361409  50.3267176  48.1349114  42.1207201
  50.7017292  48.7165393  39.9830268  50.5320433  49.3753001  39.2364746
  51.6326007  47.6222643  39.7403511  51.4669996  46.8209266  40.4604437
  51.4183027  47.0641330  38.3282290  51.5129617  47.8969998  37.6314709
  52.2124610  46.3416326  38.1400651  50.0692778  46.3944790  38.1357082
  49.9603272  45.6158384  38.8906581  49.2899034  47.1441121  38.2725577
  49.9427011  45.7802703  36.7543483  50.0867609  46.5574298  36.0037692
  50.7074590  45.0130259  36.6335977  48.6337850  45.1712301  36.5508619
  47.9464212  45.7184692  36.0527056  48.2943282  43.9604268  36.9721201
  49.1455907  43.1936256  37.6341330  50.0780648  43.5298813  37.8278447
  48.8589490  42.2756169  37.9426718  47.0682998  43.5078049  36.7233682
  46.4120880  44.0869688  36.2193291  46.7993587  42.5870974  37.0397020
  53.0981052  48.0057725  39.9068321  53.9512556  47.1124368  39.9027582
  53.4177365  49.2917244  40.0484146  52.7019952  50.0038248  40.0214553
  54.8078820  49.7131347  40.1827793  55.4842947  48.8642830  40.2828582
  55.2475750  50.5521072  38.9692468  54.6228317  51.4432461  38.9086948
  56.7081550  50.9645440  39.1079090  57.3336049  50.0738727  39.1680579
  57.0027660  51.5569418  38.2416702  56.8342112  51.5582186  40.0133160
  55.0226020  49.7773416  37.6785767  53.9642349  49.5366382  37.5784623
  55.3384867  50.3842906  36.8300902  55.6037440  48.8554708  37.7015772
  54.9922560  50.4973192  41.4748660  55.7333568  50.0762224  42.3694273
  54.3152581  51.6410460  41.5835801  53.7079396  51.9623178  40.8432774
  54.4998278  52.4998627  42.7485959  55.5536660  52.6573380  42.9782168
  53.8362871  53.8696921  42.5196807  52.7555435  53.7374709  42.4685915
  54.1773247  54.8197727  43.6577577  55.2579466  54.9528606  43.7091852
  53.7009553  55.7842323  43.4817164  53.8177806  54.4039441  44.5989890
  54.2676112  54.4536101  41.1829892  53.9729777  53.7789633  40.3791578
  53.7890289  55.4220690  41.0375726  55.3503504  54.5788186  41.1730170
  53.9545272  51.8209123  43.9975822  54.6090525  51.7908661  45.0459557
  52.7416241  51.2720388  43.9051611  52.2015631  51.3322937  43.0538076
  52.1388741  50.6200823  45.0612179  52.1116481  51.3071034  45.9070075
  50.7075201  50.1949400  44.7306901  50.2334217  51.1436600  44.4791743
  50.7344305  49.5572884  43.8470746  49.9054742  49.5008850  45.8368385
  48.8438892  49.6218939  45.6212112  50.2406584  48.0137511  45.9231013
  51.3020590  47.8919399  46.1391790  49.6534691  47.5539397  46.7180120
  50.0060676  47.5322357  44.9737802  50.1273525  50.1811737  47.1806079
  49.8086867  51.2217098  47.1186704  49.5468682  49.6690119  47.9479602
  51.1855865  50.1405585  47.4386586  52.9692497  49.4229636  45.5016328
  53.2292243  49.2395437  46.6955956  53.3998557  48.5944771  44.5475859
  53.1375708  48.7215571  43.5805509  54.2207967  47.4407089  44.8952768
  53.7095839  46.8311625  45.6404036  54.4773105  46.5838954  43.6559152
  55.0105444  47.2090601  42.9397239  55.1185410  45.7584155  43.9649564
  53.2198746  46.0323599  43.0079820  52.5476941  46.8646830  42.7993857
  53.4996776  45.5486468  42.0721219  52.5183958  45.0283999  43.9064885
  53.2288467  44.2471156  44.1765873  52.1839952  45.5420930  44.8078180
  51.3233035  44.4054143  43.2063617  50.6417780  45.2063379  42.9197525
  51.6811160  43.8959481  42.3116474  50.6077483  43.4335188  44.0776888
  50.2757360  43.9054954  44.9066072  49.8230549  43.0446031  43.5745975
  51.2389715  42.6910570  44.3430313  55.5388450  47.8738337  45.5213923
  56.0091615  47.2586473  46.4855029  56.1501216  48.9335236  44.9899536
  55.7752504  49.4055343  44.1795359  57.4173920  49.4018123  45.5378956
  58.1381439  48.5854400  45.5842847  57.9924701  50.5116745  44.6582996
  57.3120768  51.3631058  44.6734615  59.3599784  50.9459602  45.1687027
  60.0410924  50.0951084  45.1533952  59.7526916  51.7366251  44.5293870
  59.2663298  51.3174254  46.1891654  58.1163470  50.0405672  43.3103462
  58.4776181  50.7387331  42.7593037  57.2436355  49.8914949  46.9691376
  58.0287992  49.5413607  47.8570076  56.2149902  50.7044883  47.2138059
  55.5682889  50.9698433  46.4847905  56.0382518  51.2838739  48.5377703
  57.0050043  51.5758271  48.9479558  55.1470128  52.5240575  48.4569511
  54.5461271  52.3762291  47.5596316  54.4934729  52.5669927  49.3282388
  55.9251761  53.8353890  48.3386775  56.6538505  53.8914833  49.1473727
  56.6454517  53.9023207  47.0030775  55.9173407  53.8467457  46.1938405
  57.1951144  54.8409506  46.9327527  57.3415176  53.0673641  46.9228258
  55.0079591  55.0327191  48.5169002  54.5426143  54.9911833  49.5016989
  55.5876062  55.9515245  48.4279772  54.2344444  55.0159810  47.7491152
  55.4538321  50.2973797  49.5372081  55.5346126  50.5422953  50.7449236
  54.8697578  49.1931956  49.0700747  54.7822209  49.0262366  48.0778240
  54.2949033  48.2202596  49.9866590  53.7646745  48.7316582  50.7900445
  53.3061327  47.3217553  49.2431297  52.5785673  47.9220474  48.6968722
  53.8371521  46.6728286  48.5467014  52.5279718  46.4287721  50.1497611
  52.8121226  45.1342488  50.4689332  53.7013307  44.6979761  50.0138783
  51.8676661  44.6438417  51.3358749  51.8534515  43.7120539  51.7253219
  50.9493580  45.6266663  51.5918162  49.8210649  45.6100224  52.4037809
  49.5832737  44.6952666  52.9467136  49.0749534  46.7540752  52.4694230
  48.1801534  46.7769090  53.0914450  49.4331636  47.9011662  51.7548219
  48.8321544  48.8083714  51.8169995  50.5542793  47.9209176  50.9515651
  50.7904598  48.8396745  50.4147175  51.3342395  46.7654129  50.8619832
  55.3559016  47.3621429  50.6593665  55.0697268  46.7374646  51.6867373
  56.5691125  47.3204807  50.1070137  56.7585326  47.8938514  49.2974055
  57.6225490  46.4442995  50.5927492  57.2277468  45.7646839  51.3479664
  58.1839635  45.6124148  49.4288271  57.3270580  45.2623771  48.8532528
  58.7784908  46.2915602  48.8177634  59.0377883  44.4225031  49.8410959
  59.6754173  44.7246205  50.6719119  58.3777026  43.6175996  50.1643905
  59.9048965  43.9351370  48.6869874  60.6268845  44.7163619  48.4492479
  60.4336841  43.0392349  49.0123219  59.0784281  43.6148495  47.4494294
  58.3005931  42.9053774  47.7317813  58.6173588  44.5378018  47.0977570
  59.9108475  43.0312958  46.3628384  60.3378320  42.1758312  46.6883600
  59.3282906  42.8332586  45.5618960  60.6314050  43.6887241  46.1007621
  58.7603004  47.1957045  51.2670794  59.6029836  46.5621789  51.9095990
  58.8009854  48.5202911  51.1489940  58.0783892  49.0157678  50.6465432
  59.9076754  49.2873866  51.7005969  60.8449022  48.9722399  51.2419165
  59.7044305  50.7767430  51.4227928  59.4082387  50.9311181  50.3852293
  58.9322791  51.1715408  52.0831086  60.9271269  51.6100617  51.6475471
  61.2276172  52.1778004  52.8668310  62.3566455  52.8564471  52.7675546
  62.7665706  53.3810641  53.6305942  62.7985917  52.7506129  51.5282130
  63.6424205  53.1666023  51.1607819  61.9221689  51.9772714  50.8060903
  62.1147640  51.7745000  49.7525761  60.0269235  49.0393007  53.1993291
  59.0493339  48.7214385  53.8796578  61.2479127  49.1874643  53.7149607
  62.0226602  49.4791284  53.1363437  61.5087430  48.8803355  55.1150095
  61.1146178  47.8941287  55.3602863  63.0136413  48.8849146  55.3813197
  63.3825860  49.8799051  55.1323761  63.1535785  48.7021303  56.4467340
  63.7835073  47.8455209  54.5840745  63.1681141  46.9505558  54.4922620
  63.9900685  48.2471366  53.5920365  65.0978482  47.4647723  55.2357513
  65.4109241  47.9138906  56.3380104  65.8750593  46.6328579  54.5535686
  66.7628405  46.3449071  54.9396130  65.5751493  46.2915588  53.6515318
  60.8241497  49.8494764  56.0666376  60.8036304  49.5918391  57.2742000
  60.2767330  50.9546652  55.5603732  60.4055554  51.1555168  54.5789646
  59.5448622  51.9162860  56.3710996  59.6750787  51.6887453  57.4291016
  60.0681667  53.3292874  56.1069622  60.0740625  53.5220943  55.0341668
  59.4355954  54.0645708  56.6042667  61.4724909  53.5684113  56.5953999
  62.0252310  52.7946269  57.6012479  61.4329640  51.9950106  58.0461449
  63.3100558  53.0265829  58.0409463  63.7339947  52.4083318  58.8322376
  64.0577512  54.0370839  57.4825195  65.0742713  54.2204811  57.8305888
  63.5221916  54.8155967  56.4851256  64.1125422  55.6173086  56.0414541
  62.2377258  54.5820301  56.0459534  61.8112762  55.1995606  55.2554493
  58.0433942  51.8605801  56.1074884  57.3181389  52.7900352  56.4731535
  57.5619369  50.7889598  55.4761741  58.1548406  50.0031754  55.2501049
  56.1704339  50.7520191  55.0429410  55.8841396  51.7567918  54.7321892
  56.0217110  49.8100556  53.8479149  56.2961299  48.7981271  54.1459000
  54.9874293  49.8191083  53.5039966  56.6753932  50.1404154  53.0406596
  55.2241731  50.3235480  56.1558170  54.0877449  50.8054288  56.2111596
  55.6626076  49.4324972  57.0422337  56.6307834  49.1460553  57.0684254
  54.7163665  48.7552949  57.9239523  53.9739617  48.2176605  57.3341357
  55.4591371  47.7481852  58.8138145  54.7280676  47.1727706  59.3817359
  56.0475986  47.0738037  58.1917030  56.3988839  48.3415314  59.8064788
  57.7441469  48.5003808  59.6618787  58.1811826  48.1638071  58.7217629
  58.2761499  49.0774819  60.7879787  59.2505516  49.3021130  60.9300410
  57.2696159  49.3005945  61.6882359  57.3126551  49.8599890  62.9607018
  58.2749205  50.1893612  63.3526941  56.1346743  49.9615379  63.6438270
  56.1293280  50.3950233  64.6439079  54.9283957  49.5208135  63.0892362
  53.9942766  49.6062672  63.6444107  54.8831099  48.9657592  61.8258871
  53.9179936  48.6397596  61.4381045  56.0714840  48.8486860  61.1033541
  53.8648300  49.7053313  58.7599561  52.6564304  49.4433065  58.8906550
  54.3894319  50.7895853  59.3415920  55.6912825  51.4405767  59.1271739
  55.6586710  52.0467323  58.2218495  56.4721720  50.6862401  59.0308060
  55.8441712  52.2616858  60.3599204  56.5199379  53.0961445  60.1725253
  56.2395513  51.6496210  61.1705699  54.4718182  52.7351108  60.6738728
  54.2572891  53.6502788  60.1220180  54.3379256  52.9148325  61.7405839
  53.5313269  51.6125695  60.2093696  53.2104129  50.9860100  61.0415568
  52.3128764  52.1718930  59.4991601  51.2688517  52.3592686  60.1350570
  52.4120225  52.4442827  58.2013913  53.2805189  52.2499704  57.7238391
  51.3324539  53.0625995  57.4458762  50.6748314  53.6139535  58.1179184
  51.9051843  54.0369898  56.4135621  52.4493497  53.4942391  55.6406424
  51.0943608  54.6039944  55.9562098  52.8624013  55.0425402  56.9874609
  54.1794665  54.7014276  57.2397750  54.5190196  53.6892965  57.0197878
  55.0595473  55.6256622  57.7637263  56.0932651  55.3423151  57.9618237
  54.6326630  56.9046972  58.0361624  55.3272834  57.6374537  58.4468573
  53.3266579  57.2581484  57.7893651  52.9857822  58.2702350  58.0075038
  52.4477085  56.3317514  57.2656251  51.4136464  56.6132893  57.0667482
  50.4436565  52.0470866  56.7396879  49.5882182  52.4432399  55.9418052
  50.6204832  50.7555560  57.0063094  51.3016568  50.4708031  57.6955247
  49.8989346  49.7196152  56.2793229  49.7263077  50.0371197  55.2509795
  50.7154703  48.4241790  56.2609828  51.1401649  48.2968811  57.2567382
  50.0217530  47.6089331  56.0554818  51.8315933  48.4115732  55.2290514
  51.4030334  48.5740329  54.2400903  52.5247306  49.2200812  55.4613820
  52.5984775  47.1054374  55.2156357  52.5330839  46.3254360  56.1642639
  53.3250371  46.8572215  54.1330763  53.8566473  46.0007030  54.0708825
  53.3429971  47.5259876  53.3764186  48.5119728  49.4391257  56.8459204
  47.8716911  48.4751972  56.4112539  48.0289640  50.2393044  57.7908784
  48.5784809  51.0165879  58.1284593  46.7265447  50.0019911  58.3939508
  46.0364349  49.6371062  57.6332230  46.8139378  48.9576026  59.5199140
  45.7902492  48.6838790  59.7753276  47.3287112  48.0906892  59.1057046
  47.5422395  49.4294375  60.7752110  47.1855491  50.4255204  61.0373020
  47.3155974  48.7377666  61.5865844  49.0423870  49.4857584  60.5930915
  49.5617728  49.1705878  59.5229463  49.7499664  49.8943249  61.6384512
  50.7562017  49.9510089  61.5722776  49.2791079  50.1467767  62.4955752
  46.1944652  51.3224643  58.9296184  46.9667161  52.2647706  59.1415439
  44.8872333  51.4235902  59.1598949  43.8337372  50.4336746  58.8781876
  43.8119021  49.6856901  59.6707422  44.0344686  49.9458412  57.9243404
  42.5924560  51.2688886  58.8418218  41.7313626  50.6659961  59.1301583
  42.4397662  51.6622764  57.8368176  42.8342745  52.3723686  59.8139764
  42.5976353  52.0042495  60.8122696  42.2637054  53.2800369  59.6172816
  44.3352563  52.6651138  59.7088301  44.5547877  53.4795449  59.0184633
  44.9364027  52.9788972  61.0688040  45.3096267  52.0844756  61.8297527
  45.0300508  54.2704516  61.3703122  44.7336693  54.9703593  60.7051909
  45.6055992  54.7166709  62.6324114  46.5021415  54.1516089  62.8873939
  45.9629089  56.2118934  62.5887721  45.0566283  56.7874026  62.4002408
  46.5774671  56.6523032  63.9090991  47.4841096  56.0775185  64.0981041
  46.8239418  57.7129294  63.8598762  45.8652497  56.4824218  64.7165569
  46.9047706  56.4917606  61.4364180  46.4250091  56.2126028  60.4983339
  47.1499951  57.5536321  61.4165818  47.8181933  55.9107689  61.5637308
  44.6055456  54.4248694  63.7423239  43.6481495  55.1785375  63.9449320
  44.8208693  53.3303125  64.4696973  45.5894511  52.7189845  64.2337750
  43.9442099  52.9468663  65.5759859  42.9055427  53.1377038  65.3060772
  44.1000319  51.4658030  65.8944260  44.0877206  50.9158908  64.9533924
  45.0655584  51.3296784  66.3815898  43.0010003  50.9447899  66.7978478
  42.1437413  51.7504301  67.2185578  42.9935286  49.7299185  67.0846799
  44.2872256  53.8189514  66.7761416  45.0720177  53.4434014  67.6472815
  43.6763455  55.0052732  66.8199934  42.9795014  55.2582487  66.1340553
  44.0470169  55.9940667  67.8263960  45.1051752  56.2297939  67.7131138
  43.2378095  57.2732049  67.6245051  42.1765596  57.0550397  67.7438895
  43.5408404  58.0157706  68.3626573  43.4175843  57.6631663  66.6226517
  43.8481052  55.4579992  69.2365165  44.6732051  55.7044801  70.1236509
  42.7564164  54.7261172  69.4666431  42.0791633  54.5522473  68.7378105
  42.4741182  54.2221823  70.8096578  42.4077787  55.0243921  71.5446120
  41.1504452  53.4373786  70.8175062  41.1797890  52.6858469  70.0285586
  40.9422048  52.7535695  72.1618436  40.9122875  53.5045532  72.9512924
  40.0012253  52.2035896  72.1484212  41.7638131  52.0623314  72.3495963
  39.9853089  54.3611222  70.4984559  40.1303644  54.8025244  69.5124412
  39.0561310  53.7913492  70.5077758  39.9331234  55.1525397  71.2461430
  43.6329776  53.3675729  71.3066042  44.1462031  53.5699890  72.4141692
  44.0670053  52.4026521  70.4951335  43.5938451  52.1815571  69.6306476
  45.2158170  51.5916435  70.8815358  45.0807738  51.2167817  71.8961002
  45.3656870  50.4007653  69.9371603  45.2679911  50.7805413  68.9201426
  46.3690542  49.9995019  70.0797857  44.3444725  49.3019568  70.1667223
  44.3432229  49.0457594  71.2261854  43.3613611  49.6776998  69.8831533
  44.6689364  48.0648098  69.3473954  44.6770563  48.3405426  68.2928792
  45.6573180  47.7076923  69.6366504  43.6475048  46.9652001  69.5746529
  43.6473098  46.7155578  70.6356803  42.6670430  47.3484140  69.2919143
  43.9515643  45.7445638  68.7779767  44.8598581  45.3890632  69.0401240
  43.2496990  45.0411239  68.9586903  43.9513716  45.9755803  67.7947522
  46.4926032  52.4202605  70.9010555  47.3461696  52.2346598  71.7764827
  46.6416168  53.3415017  69.9514232  45.9082598  53.4897475  69.2729617
  47.8694709  54.1131632  69.8204813  48.7309021  53.4926372  70.0674288
  48.0199843  54.6079702  68.3797965  47.1335752  55.2203933  68.2145213
  48.9104130  55.2331553  68.3136122  48.0872778  53.5100662  67.3145413
  47.3047672  52.7777853  67.5133947  47.8921888  54.0946357  65.9263984
  48.6746514  54.8267173  65.7266293  47.9437277  53.2970939  65.1852024
  46.9179769  54.5802259  65.8697087  49.4067935  52.7617571  67.4001098
  49.5023842  52.3041594  68.3847754  49.4353152  51.9858233  66.6351167
  50.2306670  53.4576776  67.2419134  47.9379985  55.2972834  70.7757119
  48.9674726  55.9790725  70.8109907  46.8828642  55.5605071  71.5468369
  46.0344063  55.0267524  71.4230449  46.8792290  56.6520907  72.5189058
  45.8838834  56.7571919  72.9505771  47.8752044  56.3724683  73.6479304
  47.6730545  55.3810274  74.0532446  48.8861341  56.3989548  73.2412122
  47.7789010  57.3836724  74.7716625  46.7071669  57.9201554  75.0488322
  48.9030156  57.6517447  75.4239588  48.8963723  58.3185646  76.1825146
  49.7600491  57.1877196  75.1588641  47.1809117  57.9889012  71.8382631
  48.1769521  58.6560516  72.1252121  46.2910958  58.3735562  70.9222111
  45.5130529  57.7628578  70.7177701  46.4124041  59.6191694  70.1652916
  47.2983277  60.1629895  70.4931607  46.5403720  59.3337840  68.6703701
  45.5895276  58.8709652  68.4061868  46.6459373  60.2771686  68.1346636
  47.6875860  58.3974734  68.2847077  47.6494201  57.5130054  68.9206013
  47.5744582  57.9790672  66.8283646  47.6130156  58.8630252  66.1917875
  48.4000752  57.3137518  66.5757528  46.6290144  57.4598526  66.6713532
  49.0301941  59.0545603  68.5533659  49.1124816  59.2939154  69.6135721
  49.8321161  58.3719315  68.2722245  49.1109523  59.9701000  67.9673931
  45.1888450  60.4778183  70.4584386  44.1803741  60.4047278  69.7387433
  45.2288543  61.3093020  71.5072814  46.3932958  61.6703790  72.3369357
  47.2309081  61.9316185  71.6902056  46.6688664  60.8212334  72.9623250
  45.9000205  62.8386430  73.1423025  46.1575343  63.7668372  72.6321639
  46.3666566  62.8244567  74.1272649  44.4275585  62.6693347  73.2504467
  43.9406411  63.6381628  73.3617237  44.1413133  62.0220640  74.0794244
  44.0150849  62.0284016  71.9196220  43.2254752  61.2887967  72.0522846
  43.5627360  63.0770047  70.9168194  42.3996313  63.0879084  70.5027208
  44.4733979  63.9621461  70.5172414  45.4250076  63.8795975  70.8454547
  44.1343670  65.0887823  69.6588855  43.1004558  65.3898154  69.8277227
  45.0479747  66.2782031  69.9720566  46.0770124  65.9696356  69.7877555
  44.7851236  67.0890324  69.2926708  44.9128047  66.7558411  71.4047202
  43.9973816  66.2784418  72.1073243  45.7224989  67.6065504  71.8276480
  44.2270613  64.7579198  68.1761543  43.9499435  65.6295980  67.3446341
  44.6080073  63.5297133  67.8226803  44.8094645  62.8206916  68.5131893
  44.8105551  63.2022598  66.4160714  45.5268288  63.8930876  65.9713153
  45.3551142  61.7819526  66.2827748  46.3113467  61.7446541  66.8046250
  44.6463860  61.1167802  66.7760799  45.5458024  61.3413651  64.8515279
  46.5827179  61.8457448  64.0821059  47.2646255  62.5700969  64.5275444
  46.7597532  61.4454822  62.7722076  47.5759120  61.8534136  62.1759034
  45.8941992  60.5240970  62.2185603  46.0646206  60.1167667  60.9143458
  46.8140668  60.5361042  60.4852932  44.8595264  60.0070665  62.9648322
  44.1756574  59.2785851  62.5292425  44.6907248  60.4165068  64.2724999
  43.8734787  60.0114167  64.8692502  43.5242170  63.3613596  65.6179514
  43.5370957  63.9072309  64.5092004  42.4026070  62.8952919  66.1633310
  42.4122833  62.4992733  67.0924031  41.1525184  62.8729981  65.4161848
  41.3454981  62.6244574  64.3725922  40.2103668  61.8204279  66.0032115
  40.4154799  61.7479005  67.0712788  39.1898637  62.1726535  65.8528435
  40.3722552  60.4600620  65.3661380  40.1722286  60.2837131  64.0030520
  39.8927974  61.1464822  63.3983644  40.3205619  59.0480186  63.4128646
  40.1619994  58.9248629  62.3415138  40.6737099  57.9647789  64.1853749
  40.8204689  56.7285888  63.5985455  40.6532427  56.7398543  62.6532899
  40.8781826  58.1110773  65.5389634  41.1575403  57.2526252  66.1497986
  40.7276203  59.3532228  66.1219109  40.8885912  59.4757242  67.1929766
  40.4581564  64.2269556  65.3744677  39.4352186  64.3563325  64.6933553
  40.9808676  65.2312542  66.0756384  41.7111271  65.0489950  66.7491381
  40.4996186  66.5970895  65.9324831  39.4930634  66.5931993  65.5142360
  40.4604240  67.2949872  67.2973203  41.4296828  67.1300573  67.7678888
  40.3258361  68.3598341  67.1073540  39.3588915  66.8023974  68.2210364
  38.4024939  66.9042062  67.7081625  39.5386258  65.7516269  68.4483665
  39.3280157  67.6021139  69.5136745  40.2636192  67.4320307  70.0464190
  39.2403739  68.6592132  69.2627573  38.1620899  67.1934245  70.3960598
  37.2411374  67.3190708  69.8267091  38.2845584  66.1431760  70.6607840
  38.0936740  68.0122949  71.6361064  37.9797597  68.9854668  71.3910356
  37.3080349  67.7116807  72.1951253  38.9467796  67.8956762  72.1640363
  41.3514335  67.4240111  64.9824357  40.8587390  68.4207834  64.4414532
  42.6092641  67.0365940  64.7704307  42.9645131  66.1984563  65.2079496
  43.5245508  67.8386258  63.9688584  43.2295626  68.8878210  63.9853085
  44.9588184  67.7010769  64.5077634  45.1795495  66.6445705  64.6599881
  45.9583532  68.2909009  63.5255669  45.7385319  69.3475738  63.3731805
  46.9670272  68.1840287  63.9246355  45.8870941  67.7645530  62.5737375
  45.0744935  68.4044892  65.8617396  45.1055449  69.4762306  65.6655077
  44.1734159  68.1649803  66.4263583  46.2944894  68.0030084  66.6644601
  47.1960327  68.2426520  66.1006424  46.3027795  68.5456239  67.6097637
  46.2639048  66.9314006  66.8614911  43.4764950  67.4655831  62.4910493
  43.8061191  68.3026902  61.6395766  43.0764060  66.2390339  62.1623869
  42.8653633  65.5893832  62.9063724  42.9717696  65.7708592  60.7854666
  43.2327641  66.5644005  60.0852714  43.8648862  64.5442321  60.5264053
  43.6385946  63.7768744  61.2667125  43.6142222  63.9906391  59.1282800
  43.8407555  64.7573307  58.3873568  44.2531643  63.1236753  58.9602698
  42.5692679  63.6945326  59.0361356  45.3408810  64.9024324  60.7184883
  45.4613752  65.2119957  61.7566369  45.9152662  63.9930060  60.5420661
  45.8421355  66.0028390  59.8014004  45.2684944  66.9127814  59.9775840
  46.8960521  66.1934074  60.0039902  45.7223831  65.6937922  58.7630125
  41.5141210  65.4428645  60.5060851  40.8668955  64.7482005  61.2975887
  41.0012968  65.9440057  59.3834191  41.5637738  66.5498650  58.8032007
  39.6250419  65.6894662  58.9844827  39.0332348  65.3912941  59.8499056
  39.0113745  66.9613785  58.3857028  39.2015578  67.7684583  59.0931996
  39.5425426  67.1618709  57.4552388  37.5207533  66.8725384  58.1082902
  37.3591141  66.1938314  57.2708354  37.0212472  66.4808294  58.9943826
  36.9507577  68.2407299  57.7687285  37.1220015  68.9036660  58.6168383
  37.4782307  68.6249014  56.8956398  35.4621253  68.1732001  57.4715696
  35.3144879  67.5247745  56.6079447  34.9592124  67.7436464  58.3379768
  34.8932999  69.5184655  57.1845629  35.3588788  69.9164936  56.3815002
  33.9054593  69.4323127  56.9926028  35.0296196  70.1193401  57.9848539
  39.4898988  64.5494586  57.9854748  38.3777852  64.0431963  57.7988850
  40.5826244  64.1340838  57.3444189  41.4613734  64.5907080  57.5428977
  40.5615332  63.0825132  56.3273547  39.6327094  62.5157664  56.3920352
  40.6778116  63.6713995  54.9205380  40.9203029  62.8709334  54.2215728
  39.3709169  64.3287969  54.5043628  39.1279891  65.1297281  55.2026428
  39.4745930  64.7414064  53.5008171  38.5722512  63.5870488  54.5109549
  41.7323272  64.6415212  54.8900960  41.8031811  65.0094926  54.0062537
  41.6953397  62.1008047  56.5948732  42.7649569  62.1842461  55.9760981
  41.4991225  61.1575265  57.5149558  40.3844437  61.0411204  58.4683707
  39.5289537  60.5779269  57.9767520  40.1043624  62.0316120  58.8269510
  40.9571437  60.1852382  59.5494820  40.1595479  59.6207080  60.0324370
  41.4567326  60.8119323  60.2882423  41.9349939  59.2776920  58.8694924
  41.3909376  58.4149112  58.4851603  42.7467899  58.9377070  59.5125297
  42.4997469  60.0993868  57.7039962  43.4540319  60.5636522  57.9527857
  42.6584757  59.2579837  56.4454875  41.6920263  58.9928677  55.7269801
  43.8940203  58.8316647  56.1866214  44.6489933  59.0744076  56.8120740
  44.2074752  58.0568579  54.9940957  43.3455543  57.4484341  54.7202127
  44.5576204  58.9718331  53.8120396  43.7332402  59.6767663  53.7044958
  45.4629588  59.5118626  54.0892230  44.7827029  58.2486745  52.4901162
  44.8456940  59.0043805  51.7071466  45.7330706  57.7196459  52.5610531
  43.4788523  57.0727170  52.0758001  42.0791343  58.1722118  51.8865341
  42.2856718  58.8909843  51.0935603  41.1930600  57.5921414  51.6286750
  41.9050924  58.7040068  52.8219510  45.3649543  57.1153443  55.3000847
  46.1729194  57.3763718  56.1959251  45.4370855  56.0173307  54.5485740
  44.7424036  55.8385063  53.8375618  46.4892454  55.0294932  54.7504094
  47.4189097  55.5412186  54.9993279  46.1451548  54.0616460  55.8843210
  47.0535318  53.5369517  56.1803721  45.7796423  54.6553255  56.7222025
  45.0891167  53.0539373  55.4814653  43.8877299  53.3846007  55.5629555
  45.4613005  51.9348882  55.0709045  46.7075569  54.2528017  53.4611875
  45.8305557  54.1838925  52.5961779  47.9000275  53.6616396  53.3504747
  48.5927596  53.7530137  54.0797705  48.2575026  52.9192924  52.1455555
  48.2017184  53.5733217  51.2753641  49.6825585  52.3813138  52.2613126
  49.6817491  51.6397944  53.0602165  49.9198342  51.8949669  51.3151271
  50.7238771  53.4431566  52.5586466  50.4380529  54.3535548  52.0317875
  50.7197512  53.6290265  53.6326752  52.3805123  52.9596219  52.0483007
  52.5512721  51.3922493  52.8943558  51.7736047  50.7084762  52.5540814
  53.5303267  50.9657313  52.6761011  52.4540550  51.5463807  53.9690156
  47.2828408  51.7791026  51.8822012  46.9436941  51.5012679  50.7271855
  46.8422740  51.0871718  52.9344762  47.1351740  51.3010521  53.8771130
  45.9109570  49.9878702  52.7344021  46.3837470  49.2463994  52.0903601
  45.6912418  49.5395211  53.7033229  44.6144498  50.4407058  52.0954702
  44.0591680  49.7536022  51.2319774  44.1175933  51.6102469  52.5023867
  44.5195594  52.1096464  53.2828499  42.9385242  52.1715160  51.8567862
  42.0998338  51.4783523  51.9217602  42.5414711  53.4840142  52.5343844
  43.4050176  54.1490204  52.5468159  41.3988295  54.1520708  51.7879103
  40.5347126  53.4878067  51.7754617  41.1331660  55.0836488  52.2875947
  41.7078281  54.3646330  50.7644663  42.1386723  53.2261801  53.8843280
  41.8900496  54.0513754  54.3072225  43.1988839  52.3923217  50.3747479
  42.3387138  52.1073647  49.5324985  44.3836101  52.9041856  50.0405200
  45.0425320  53.1877610  50.7515096  44.7280626  53.1431313  48.6440582
  43.9723197  53.7048425  48.0950297  46.0783085  53.8742974  48.5508173
  46.7931888  53.3925627  49.2178842  46.6009660  53.8239176  47.1296832
  45.8867884  54.3059072  46.4620478  47.5571077  54.3443999  47.0749849
  46.7355645  52.7851487  46.8281181  45.9557101  55.2999717  49.0968297
  45.4761500  55.9021687  48.3251552  45.3118090  55.2560868  49.9752174
  47.2797832  55.9255555  49.4736498  47.9240968  55.9702088  48.5956032
  47.1113006  56.9339178  49.8516954  47.7597571  55.3241251  50.2456643
  44.7486591  51.8376510  47.8627863  44.2401102  51.7644891  46.7371796
  45.3531576  50.7923013  48.4296555  45.8157536  50.8579224  49.3250873
  45.4018593  49.5208260  47.7180955  45.8324323  49.6754231  46.7287494
  46.2545342  48.4996506  48.4671132  47.1706006  48.9923079  48.7930126
  45.6950009  48.1606204  49.3389394  46.6056476  47.3024774  47.5923255
  45.8596133  47.2437075  46.7998106  47.5859500  47.4908010  47.1545544
  46.6363839  45.9926959  48.3550664  45.6556612  45.8488981  48.8085024
  46.8248394  45.1943064  47.6373211  47.6995764  45.9633771  49.4328271
  48.6799396  46.1101795  48.9795749  47.5093790  46.7600740  50.1519920
  47.6673207  44.6484064  50.1295371  47.8439666  43.9100624  49.4633958
  48.3769930  44.6305763  50.8479710  46.7591167  44.5123686  50.5499634
  44.0021355  48.9685022  47.5069134  43.6821679  48.4610234  46.4264617
  43.1528365  49.0484098  48.5324084  43.4389493  49.3981303  49.4356992
  41.7858579  48.5647255  48.3797615  41.7917793  47.5211095  48.0652305
  41.0425407  48.6693614  49.7108204  41.6168429  48.1032314  50.4441505
  41.0339778  49.7226075  49.9913547  39.6150371  48.1441115  49.6698831
  39.1289352  48.3948109  50.6127276  39.0910973  48.6350456  48.8497777
  39.5774507  46.6398114  49.4657008  40.0368733  46.4073262  48.5049820
  40.1475148  46.1657141  50.2646739  38.1524914  46.1188837  49.4837706
  37.5752018  46.6802799  48.7491472  38.1711309  45.0658948  49.2027616
  37.5228227  46.2630916  50.8242147  37.5050626  47.2387872  51.0846040
  36.5786692  45.9057540  50.7928444  38.0573575  45.7426137  51.5050042
  41.0533309  49.3400518  47.2922417  40.3658945  48.7461495  46.4526172
  41.1901857  50.6673318  47.2878319  41.7282744  51.1424690  47.9983279
  40.5110229  51.4737374  46.2799446  39.4408052  51.2675788  46.2951720
  40.7264792  52.9599658  46.5678210  41.7850997  53.0953276  46.7894040
  40.4736914  53.5045712  45.6580939  39.8948485  53.4920272  47.7243114
  38.8404294  53.3884025  47.4682584  40.1133605  52.8958113  48.6102465
  40.2056481  54.9513619  48.0073520  41.2215566  55.0291263  48.3946265
  40.1268723  55.5173980  47.0791835  39.2888826  55.5252931  48.9832988
  38.6316982  54.8960230  49.4217359  39.2621047  56.8053027  49.3240279
  40.0941000  57.6825266  48.7866424  40.7690798  57.3785035  48.0995672
  40.0504026  58.6521469  49.0659747  38.3800331  57.2171856  50.2306806
  37.7427614  56.5542140  50.6483570  38.3516661  58.1909755  50.4971899
  40.9997433  51.1260506  44.8803235  40.1983512  50.9926031  43.9486200
  42.3138850  50.9757002  44.7151100  42.9581420  51.1377999  45.4758701
  42.8601975  50.6261461  43.4092155  42.5240676  51.3410194  42.6581683
  44.3860486  50.6550494  43.4620186  44.6307417  50.0192778  44.3129117
  44.7767657  50.2056165  42.5490836  45.0145665  52.0350496  43.6598412
  44.4557727  52.5740822  44.4248864  46.4651595  51.8985817  44.0939927
  47.0247297  51.3600195  43.3291850  46.8987690  52.8892310  44.2307317
  46.5134777  51.3485121  45.0337741  44.9077380  52.8681615  42.3926352
  43.8579080  52.9967372  42.1291496  45.3620725  53.8447460  42.5598603
  45.4265318  52.3611634  41.5790597  42.3678179  49.2569966  42.9578764
  41.9937701  49.0729167  41.7943796  42.3573026  48.2835670  43.8718213
  42.6200620  48.4716018  44.8287434  42.0303558  46.9113080  43.5014473
  42.6031029  46.6116322  42.6238060  42.3763724  45.9702743  44.6552078
  43.4127565  46.1674244  44.9293229  41.7245165  46.2323388  45.4885781
  42.2113500  44.4973442  44.3280174  41.1560021  44.2445139  44.4300883
  42.5217194  44.3484559  43.2938017  43.0342695  43.6051145  45.2354796
  43.5143097  44.0973680  46.2779449  43.1994223  42.4109415  44.9091539
  40.5659034  46.7610436  43.1131823  40.2375997  45.9360013  42.2541417
  39.6750667  47.5404588  43.7292887  39.9860330  48.1420445  44.4786177
  38.2522826  47.5083906  43.4140334  38.0395580  46.6779257  42.7408503
  37.4313515  47.3248072  44.6911881  37.7549724  48.0582589  45.4297118
  36.3805365  47.4893061  44.4528017  37.5819700  45.9370825  45.2874894
  37.8638821  45.7895426  46.4755902  37.3873849  44.9122457  44.4649251
  37.4753513  43.9673655  44.8107041  37.1523716  45.0826701  43.4975445
  37.8025126  48.7597352  42.6689811  36.6206511  49.1163940  42.7178983
  38.7290131  49.4339476  41.9854276  39.7005520  49.2193596  42.1591042
  38.4134818  50.5268288  41.0628271  39.3167859  51.1013897  40.8578380
  37.8633812  49.9906781  39.7380401  37.6067485  50.8344954  39.0975627
  38.6401536  49.3946530  39.2590007  36.6300944  49.1256511  39.9175758
  36.6982556  47.8999750  39.8213571  35.4935318  49.7599977  40.1850508
  34.6422760  49.2319224  40.3138914  35.4861326  50.7673123  40.2582848
  37.4421794  51.5255627  41.6848948  36.5018972  51.9970253  41.0423891
  37.6749435  51.8558429  42.9570995  38.3943743  51.3971154  43.4975509
  36.8451730  52.8561822  43.6186531  35.7920542  52.6066624  43.4891157
  37.1552930  52.9042405  45.1144756  37.1386286  51.8789302  45.4840164
  38.1596544  53.3132363  45.2243877  36.1789346  53.7435174  45.9113543
  34.9333299  53.2452776  46.2661052  34.6650878  52.2338110  45.9610137
  34.0386008  54.0081218  46.9937834  33.0629428  53.6046393  47.2646988
  34.3855393  55.2864112  47.3745511  33.4976492  56.0483018  48.0984454
  32.6730522  55.5916957  48.2805177  35.6158960  55.8042508  47.0369859
  35.8914771  56.8145803  47.3392935  36.5047630  55.0332439  46.3092263
  37.4806826  55.4360899  46.0383088  37.0425964  54.2300547  42.9952590
  36.1081588  55.0392509  42.9663793  38.2430174  54.5057936  42.4938766
  38.9716013  53.8065336  42.5112095  38.5467359  55.8010322  41.9164503
  38.2767547  56.5951707  42.6125490  40.0428480  55.8978821  41.6216849
  40.2910730  55.0592312  40.9711865  40.1999363  56.8329541  41.0840385
  40.9284980  55.8656261  42.8438930  41.0161958  56.9542555  43.6894923
  40.4256845  57.8413711  43.4605341  41.8283891  56.9354066  44.8033059
  41.8891429  57.8059295  45.4564527  42.5640685  55.8082057  45.0890401
  43.3689343  55.7860381  46.2033958  43.3393112  56.6047371  46.7038496
  42.4969154  54.7063415  44.2630305  43.0826475  53.8139400  44.4835705
  41.6803010  54.7386513  43.1497264  41.6180876  53.8701191  42.4940730
  37.7729052  56.0061434  40.6149357  37.2300587  55.0706185  40.0201922
  37.7232020  57.2655475  40.1765455  37.9479839  58.0116128  40.8191643
  37.3127877  57.6192378  38.8234290  37.0240276  56.7204207  38.2785946
  36.1156259  58.5774039  38.8577546  35.2324495  58.0671317  39.2420995
  36.3406516  59.4377201  39.4880874  35.7451105  59.1192491  37.5079293
  35.9903210  60.3760755  37.0352853  36.5088863  61.0609125  37.7062458
  35.5052283  60.5050543  35.7560462  35.5608885  61.3379518  35.1874662
  34.9327213  59.3197738  35.3767682  34.3117429  58.9644503  34.1806391
  34.2431654  59.7098917  33.3883558  33.8237471  57.6912264  34.0769565
  33.3334948  57.3772272  33.1554593  33.9388619  56.7755125  35.1312723
  33.5446010  55.7635772  35.0382955  34.5552228  57.1263784  36.3207076
  34.6195151  56.3782759  37.1108405  35.0651249  58.4219108  36.4549261
  38.4293542  58.2565879  38.0132931  38.4269045  58.1455073  36.7855158
  39.3800980  58.9133052  38.6774057  39.2887324  59.0036805  39.6791961
  40.5246471  59.5345641  38.0307814  40.5934376  59.1815439  37.0018286
  40.3991496  61.0617428  38.0171605  39.4512974  61.3331236  37.5523726
  40.4153727  61.4225316  39.0455905  41.5211469  61.7295292  37.2527754
  42.6609746  61.7734649  37.7137867  41.2034892  62.2528972  36.0744951
  41.9132849  62.7110740  35.5209936  40.2535345  62.1904012  35.7371805
  41.7961799  59.1270549  38.7608823  41.7857857  58.8841763  39.9706046
  42.8973375  59.0526864  38.0100192  42.8772431  59.2628414  37.0223298
  44.1545045  58.5989919  38.5952425  43.9883121  57.6365331  39.0791354
  45.2046038  58.4198026  37.4994379  45.3884998  59.3770777  37.0116811
  46.1316250  58.0532256  37.9402931  44.8437095  57.7011214  36.7636717
  44.6581639  59.5642103  39.6611045  45.1757370  59.1363389  40.6988353
  44.5170005  60.8700053  39.4252184  44.1038513  61.2117115  38.5692722
  45.0144060  61.8442754  40.3900213  46.0760677  61.6774936  40.5721136
  44.8278669  63.2630723  39.8544260  45.0021508  63.2317598  38.7789057
  43.7943393  63.5513837  40.0462519  45.7636463  64.2796071  40.4898778
  45.3838052  64.5322359  41.4798274  46.7525011  63.8308895  40.5843269
  45.8854630  65.5534539  39.6784000  44.9199485  66.0075901  39.0646890
  47.0769864  66.1379016  39.6719455  47.2153114  66.9899158  39.1475034
  47.8399542  65.7279774  40.1915065  44.3329569  61.7198773  41.7436801
  44.8681029  62.2148959  42.7418091  43.1699748  61.0712886  41.8022914
  42.7032934  60.7575141  40.9633317  42.4972989  60.8762743  43.0820423
  42.3656555  61.8345594  43.5844952  41.1220398  60.2482955  42.8601457
  40.5845057  60.8923603  42.1642026  41.2855436  59.2737202  42.4001786
  40.3013809  60.0780608  44.1304641  40.8487311  59.4129643  44.7984126
  40.1983982  61.0573472  44.5978953  38.9249523  59.5005466  43.8585879
  38.6282046  59.1979845  42.6825747  38.1410448  59.3487909  44.8183103
  43.3574484  60.0351654  44.0198620  43.3385869  60.2332976  45.2397750
  44.0987143  59.0705747  43.4692046  44.0249597  58.8632374  42.4834709
  45.0032941  58.2625263  44.2802608  44.5383246  58.0218903  45.2362927
  45.3225833  56.9593452  43.5512043  44.4104022  56.4042248  43.3324207
  45.8590498  57.1560494  42.6229741  46.3605445  55.8538386  44.4991144
  46.4114650  54.8911317  43.5828716  46.3006103  58.9997867  44.5990773
  46.8852080  58.7969757  45.6737471  46.7327670  59.8926582  43.7077126
  46.2822450  59.9946746  42.8095356  47.9230068  60.6903881  43.9787055
  48.7354476  60.0654811  44.3495565  48.3784941  61.4190493  42.7018014
  47.5702060  62.0607303  42.3510647  49.6115803  62.2658800  42.9855343
  50.4204974  61.6247876  43.3358973  49.9213663  62.7747958  42.0727703
  49.3769121  63.0051722  43.7513521  48.6684451  60.4088283  41.5876959
  49.5818894  59.8802300  41.8602835  47.8357720  59.7058401  41.5639775
  48.8375760  61.0354235  40.2222391  49.6704207  61.7382386  40.2450533
  49.0401147  60.2565823  39.4870632  47.9243033  61.5638510  39.9487483
  47.6440302  61.6613850  45.1153950  48.4693901  61.8354490  46.0220414
  46.4844933  62.3184329  45.0803360  45.8626677  62.2670041  44.2861147
  46.1214276  63.1933226  46.1854592  46.9233221  63.9085625  46.3684791
  44.8420465  63.9660392  45.8602483  44.6741417  64.6647009  46.6798696
  45.0299689  64.5224198  44.9419749  43.6160779  63.0951734  45.6805329
  43.8003802  62.3989295  44.8623777  43.4493537  62.5366796  46.6016137
  42.3647417  63.8945770  45.3646648  42.4398582  65.0605263  44.9769525
  41.2057219  63.2672008  45.5292163  40.3409171  63.7509918  45.3338695
  41.1944799  62.3092063  45.8489375  45.9561781  62.3956893  47.4694244
  46.1914698  62.9242240  48.5561709  45.5699433  61.1200422  47.3687170
  45.2885770  60.7176613  46.4860948  45.4866090  60.2884465  48.5669533
  44.9026721  60.7967623  49.3342420  44.8075833  58.9606215  48.2364177
  45.2758052  58.5563246  47.3389705  44.9792823  58.2823452  49.0722172
  43.3163992  59.1095196  48.0048443  42.7559444  60.1592661  48.3830289
  42.7044317  58.1773858  47.4410328  46.8668277  60.0486966  49.1681774
  47.0454817  60.1536161  50.3880117  47.8605260  59.7334694  48.3310958
  47.6964747  59.5540248  47.3507968  49.2234328  59.5907088  48.8438192
  49.2473230  58.8390999  49.6328772  50.1655769  59.1517932  47.7222095
  49.8678963  59.6239883  46.7859845  51.1917736  59.4321560  47.9597323
  50.1713940  57.6718925  47.4737800  50.8473098  56.8171769  48.3265009
  51.3760937  57.2302597  49.1854829  50.8570498  55.4556525  48.0994646
  51.3917876  54.7929163  48.7798593  50.1899596  54.9341466  47.0114517
  50.1955793  53.8594500  46.8295293  49.5147242  55.7752039  46.1525671
  48.9869427  55.3661167  45.2910601  49.5073221  57.1356170  46.3841089
  48.9743682  57.8011406  45.7050372  49.7122251  60.8979283  49.4615248
  50.3144810  60.9067495  50.5486053  49.4632736  62.0130489  48.7744293
  49.0140395  61.9850669  47.8702694  49.8956552  63.3044549  49.2909926
  50.9674726  63.2881289  49.4885780  49.6045448  64.4006567  48.2668708
  49.8781740  64.0412576  47.2748735  48.5378843  64.6237674  48.2904721
  50.3716043  65.6749365  48.5482843  50.0174503  66.4410185  49.4434945
  51.4341261  65.9066504  47.7857667  51.9828466  66.7422379  47.9299856
  51.6884971  65.2461993  47.0652111  49.2180778  63.6137940  50.6184575
  49.8467777  64.1612119  51.5288086  47.9376374  63.2661551  50.7509927
  47.4180056  62.8966634  49.9676933  47.2375011  63.4603837  52.0151594
  47.3460879  64.4874797  52.3635585  45.7493950  63.1586077  51.8406155
  45.6362548  62.1331725  51.4887885  45.0072199  63.3270915  53.1610845
  45.1195241  64.3524748  53.5133295  43.9496499  63.1075472  53.0146429
  45.4209431  62.6419210  53.9010001  45.1890331  64.0424681  50.8614355
  44.2545932  63.8502398  50.7543343  47.8286374  62.5848846  53.1091654
  47.9116378  63.0026322  54.2704681  48.2178371  61.3565213  52.7666846
  48.0637357  60.9826118  51.8411881  48.8387512  60.4960002  53.7645920
  48.1684682  60.3770752  54.6158715  49.1329432  59.1174068  53.1791081
  48.2869560  58.8361773  52.5519600  50.0283672  59.2029046  52.5634735
  49.3498812  58.0538573  54.2435570  50.1453308  58.4014592  54.9027486
  48.4241246  57.9585503  54.8110017  49.7991524  56.4472737  53.5708614
  51.5296877  56.7178357  53.1879829  52.0680844  56.9758460  54.0999361
  51.9541734  55.8093242  52.7607601  51.6203766  57.5330607  52.4701493
  50.1182771  61.1273278  54.2920128  50.3772915  61.1099601  55.5007993
  50.9337704  61.6896656  53.3987559  50.7828581  61.6014497  52.4039982
  52.1228096  62.4067407  53.8588898  52.7037872  61.7688188  54.5249378
  53.0021700  62.8036276  52.6721709  52.4578403  63.4927292  52.0264593
  53.9162909  63.2816931  53.0242169  53.4269214  61.6463409  51.8065216
  53.3650870  60.3423019  52.2718021  53.0009889  60.1548390  53.2819457
  53.7577900  59.2871225  51.4726058  53.7016098  58.2664537  51.8509966
  54.2210871  59.5245475  50.1956582  54.5323571  58.6932501  49.5630797
  54.2900820  60.8155853  49.7199040  54.6546791  61.0065596  48.7105983
  53.8969362  61.8681069  50.5226696  53.9542598  62.8901546  50.1481932
  51.7404322  63.6421674  54.6725528  52.3649615  63.9471406  55.6988313
  50.7084413  64.3613077  54.2255113  50.1718722  64.0403517  53.4323025
  50.3602821  65.6456308  54.8215156  51.2361989  66.2906739  54.8907146
  49.3053998  66.3445163  53.9631984  48.4376567  65.6915817  53.8693981
  48.8828511  67.6606905  54.5972253  49.7500399  68.3143738  54.6909335
  48.1318386  68.1418315  53.9706611  48.4633941  67.4705427  55.5851525
  49.8365908  66.5946166  52.6559234  49.1724584  67.0333468  52.1192260
  49.8576423  65.4836079  56.2477873  50.1651617  66.3085677  57.1131532
  49.0567805  64.4502072  56.5063224  48.7600555  63.8169106  55.7776325
  48.5391414  64.2437315  57.8561678  48.0250782  65.1413458  58.1998635
  47.5489394  63.0800047  57.8658529  48.0640352  62.1808594  57.5277504
  47.1907094  62.9315553  58.8845453  46.3579647  63.3224498  56.9651201
  46.1852693  64.4142803  56.4264751  45.5256582  62.3012976  56.7979791
  44.7135779  62.4072040  56.2068707  45.7085365  61.4234248  57.2627324
  49.6769918  63.9875756  58.8347968  49.7141355  64.5601685  59.9331304
  50.6236462  63.1306376  58.4469350  50.5428145  62.6174556  57.5807885
  51.7777143  62.8723182  59.2976488  51.4488270  62.5373388  60.2813770
  52.6509938  61.7837117  58.6783074  52.1264246  60.8282636  58.6715800
  52.9321712  62.0504184  57.6595302  54.1953364  61.5000570  59.5652966
  54.6428516  60.5394875  58.7615959  52.5888576  64.1396786  59.5183027
  53.0485047  64.4047328  60.6356051  52.7803710  64.9366078  58.4651267
  52.4753105  64.6763307  57.5381460  53.5076043  66.1922858  58.6274486
  54.4924586  66.0015663  59.0538137  53.6862975  66.8713534  57.2697512
  52.7619258  66.7281092  56.7101824  53.8351440  67.9345284  57.4584405
  54.8475995  66.3355611  56.4679692  56.1372328  66.3539504  56.9823345
  56.2989715  66.7633585  57.9794930  57.2023998  65.8668412  56.2564275
  58.2099695  65.8886679  56.6716730  56.9872779  65.3501541  54.9983369
  58.0463577  64.8629035  54.2704489  58.8839938  64.9327150  54.7342287
  55.7165543  65.3184993  54.4646727  55.5464606  64.9088799  53.4689918
  54.6563889  65.8095266  55.1991606  53.6489509  65.7877440  54.7835956
  52.7997282  67.1253404  59.6042299  53.4300749  67.7055728  60.4960742
  51.4839180  67.2773349  59.4544330  50.9826381  66.7699061  58.7393569
  50.7466447  68.2433445  60.2632745  51.2581560  69.2056778  60.2825092
  49.3232095  68.4303590  59.7087549  48.9067120  67.4535988  59.4626456
  48.4359590  69.1149642  60.7410767  48.8515927  70.0920482  60.9873611
  47.4328602  69.2397188  60.3332412  48.3878042  68.5035738  61.6421772
  49.3608755  69.2435164  58.4149183  49.5847186  70.2748685  58.6875132
  50.1722651  68.8449306  57.8059226  48.0688612  69.1993195  57.6255288
  47.2570384  69.5982056  58.2337504  48.1739004  69.7996345  56.7218209
  47.8445837  68.1682667  57.3521617  50.7211783  67.8159546  61.7242863
  51.0120657  68.6124547  62.6241113  50.3704040  66.5556730  61.9885069
  50.1877240  65.8821459  61.2583777  50.1740856  66.1435485  63.3752518
  49.4948713  66.8356768  63.8729721  49.5741845  64.7419928  63.4378105
  48.6419352  64.7654118  62.8734862  50.2674013  64.0465928  62.9645565
  49.2948699  64.2897096  64.8532766  48.2502296  64.8378732  65.5829267
  47.6246836  65.5992369  65.1169686  47.9968620  64.4345580  66.8778196
  47.1707575  64.8719778  67.4384595  48.7919499  63.4766119  67.4605730
  48.5399395  63.0729910  68.7498034  47.7897065  63.5238287  69.1441325
  49.8384090  62.9193710  66.7608110  50.4697437  62.1600663  67.2223012
  50.0856268  63.3286975  65.4657090  50.9143944  62.8952187  64.9059408
  51.4764795  66.1960815  64.1659726  51.4832040  66.6151834  65.3283467
  52.5829439  65.7783347  63.5595955  52.5410348  65.4900950  62.5925067
  53.8533510  65.6619127  64.2597624  53.6878674  65.7051543  65.3362588
  54.5287420  64.3312440  63.9219934  54.3052594  64.0848793  62.8839861
  55.6065860  64.4359098  64.0460796  54.0485017  63.1979830  64.8020950
  53.2437472  62.3672222  64.3817466  54.5343382  63.1630093  66.0359968
  54.2483375  62.4284334  66.6674251  55.1880009  63.8711184  66.3383336
  54.7738135  66.8284340  63.9185135  54.4920491  67.6509517  63.0442071
  55.8948757  66.8836121  64.6281922  56.0872534  66.1157715  65.2554967
  56.8422532  67.9832159  64.5749721  56.4988463  68.7322839  63.8614820
  56.9762882  68.6440424  65.9533073  57.4902960  67.9365339  66.6039432
  57.5918485  69.5347916  65.8278026  55.6469607  69.0315322  66.5773064
  55.0918680  69.6344548  65.8586567  55.0894199  68.1202618  66.7937236
  55.8400782  69.8219271  67.8577320  56.4031927  69.2095788  68.5620263
  56.4072092  70.7236632  67.6267906  54.5065715  70.2070894  68.4755571
  53.9044369  70.6943703  67.7086857  54.0076035  69.2952182  68.8036134
  54.6718081  71.1259186  69.6341127  55.1337585  71.9711236  69.3302540
  53.7644522  71.3558910  70.0134778  55.2293732  70.6744222  70.3450073
  58.2043031  67.4792939  64.1176817  58.5159289  66.2913591  64.2635592
  59.0448580  68.3541755  63.5672867  58.8083364  69.7752213  63.2608239
  58.8825839  70.3622283  64.1762529  57.8129026  69.8945149  62.8330628
  59.8952034  70.0990775  62.2791258  60.1733401  71.1488631  62.3723418
  59.5440948  69.9053872  61.2655636  61.0276812  69.2054816  62.6272197
  61.5888099  69.6554711  63.4462088  61.7024402  68.9957422  61.7972743
  60.3636054  67.9086331  63.1015878  60.2202357  67.1960401  62.2893351
  61.1576929  67.2494047  64.2193167  61.1129466  67.6746672  65.3748497
  61.8915076  66.1960084  63.8599210  61.9177243  65.9318821  62.8854215
  62.6541937  65.4112443  64.8029509  63.6241895  65.2099547  64.3483193
  62.7916128  66.0205543  65.6962351  62.0119695  64.0966877  65.1968024
  62.6978266  63.2343186  65.7570467  60.7225464  63.9215128  64.9226479
  60.1800014  64.6737791  64.5228485  60.0463464  62.6676716  65.2252564
  60.3868798  62.2857574  66.1876896  58.5346927  62.8821984  65.2921622
  58.2164123  63.3314511  64.3514344  58.0647867  61.9051785  65.4049479
  58.1217324  63.7777426  66.4451385  58.8985390  63.8957398  67.4166394
  57.0214820  64.3655782  66.3782243  60.3808716  61.6178453  64.1723601
  60.5153190  61.9273637  62.9850643  60.5170840  60.3673074  64.6168778
  60.3972005  60.1412437  65.5939256  60.9087479  59.2999279  63.7031254
  61.8472521  59.5545783  63.2107210  61.1010792  57.9966230  64.4761676
  60.1498254  57.7403364  64.9425715  61.3765821  57.2195582  63.7631680
  62.1717164  58.1063996  65.5413169  63.3467196  58.3286515  65.1824234
  61.8390956  57.9692503  66.7376824  59.8821793  59.1166941  62.5921068
  60.2451001  58.9046656  61.4275032  58.5942182  59.1836464  62.9326865
  58.3086495  59.2502194  63.8991843  57.5590973  59.0801407  61.9119137
  57.6552743  58.1505740  61.3508834  56.1642968  59.1442717  62.5638122
  56.1211856  58.4214453  63.3785292  55.8918845  60.5356979  63.1072015
  55.9343712  61.2590647  62.2929313  54.9023286  60.5608034  63.5635452
  56.6431221  60.7874969  63.8557591  55.0796994  58.7512616  61.5572280
  54.1201181  59.0414970  61.9850923  55.2593192  59.3239122  60.6473338
  55.0586824  57.2795483  61.2286369  54.8786356  56.7062331  62.1380283
  54.2643639  57.0785464  60.5097797  56.0178383  56.9886478  60.8002717
  57.7366031  60.1684885  60.8633138  57.4591350  59.9523817  59.6784247
  58.2072348  61.3482301  61.2723365  58.3408093  61.5437588  62.2541846
  58.4580853  62.4193987  60.3130587  57.5927502  62.6011833  59.6756823
  58.8077476  63.7238948  61.0515593  59.6339288  63.5333106  61.7365421
  59.2099616  64.8032926  60.0617141  58.3840613  64.9947672  59.3766396
  59.4538684  65.7187184  60.6007925  60.0810299  64.4721610  59.4962996
  57.6252823  64.1842719  61.8858937  57.3746952  63.4157337  62.6170963
  57.8832444  65.1078271  62.4041609  56.7679885  64.3601555  61.2361144
  59.5531268  62.0197105  59.3326423  59.4347129  62.2474132  58.1225358
  60.6428032  61.4355036  59.8340839  60.7775607  61.3299862  60.8294762
  61.7063965  60.9890469  58.9410156  62.0350410  61.8149935  58.3102192
  62.8996514  60.4913816  59.7545278  62.4587452  59.8371509  60.5066469
  63.5483602  59.9077535  59.1013394  63.7195698  61.5807749  60.4449877
  63.0394729  62.2708873  60.9443011  64.6652799  60.9748372  61.4665566
  65.3460363  60.2849134  60.9678837  65.2392381  61.7676659  61.9462392
  64.0904789  60.4362949  62.2199996  64.4909658  62.3953790  59.4208790
  63.7923597  62.8640616  58.7277805  65.0691846  63.1664281  59.9300426
  65.1656681  61.7410112  58.8689020  61.2119302  59.9022059  57.9964154
  61.5577566  59.8939319  56.8077095  60.4040419  58.9706934  58.5070129
  60.1939111  58.9337069  59.4942192  59.8449548  57.9382882  57.6419983
  60.6466390  57.3920423  57.1449903  59.0230973  56.9520058  58.4714941
  58.2555771  57.5265310  58.9900814  58.5497163  56.2597187  57.7752549
  59.8422410  56.1691040  59.4862323  60.6524081  55.6740912  58.9507956
  60.2596993  56.8806156  60.1986800  58.8792490  54.9333042  60.3780189
  58.8404760  53.6083352  59.1803956  59.8586948  53.2897794  58.9571208
  58.2779840  52.7674636  59.5861523  58.3610568  53.9581787  58.2661375
  58.9898410  58.5579480  56.5455093  59.0764073  58.1633169  55.3753881
  58.1621207  59.5398298  56.9078036  58.0652123  59.8092961  57.8763572
  57.3288272  60.2086610  55.9184363  56.7271019  59.4644985  55.3966623
  56.3913736  61.1979685  56.6082859  56.9793031  61.9547426  57.1276431
  55.7577895  61.6790101  55.8631212  55.7671519  60.6670840  57.3270405
  58.1793401  60.9170285  54.8743452  57.8760622  60.8626480  53.6794848
  59.2437301  61.5952683  55.3063472  59.4533924  61.6742055  56.2911873
  60.1061544  62.2936506  54.3565980  59.5149476  62.9789555  53.7492013
  61.1674694  63.0975981  55.1070779  61.5414764  62.4615145  55.9093345
  61.9721168  63.3014046  54.4006038  60.6638620  64.4063218  55.6918810
  60.2566668  65.0036567  54.8761090  59.8704313  64.1731110  56.4019370
  61.7556195  65.1881554  56.3938095  62.9374171  65.0196938  56.0277901
  61.4324781  65.9717956  57.3121051  60.7652546  61.3167406  53.3909792
  60.8213044  61.5666659  52.1792805  61.2785216  60.2002733  53.9126254
  61.2792327  60.0341340  54.9088666  61.9126580  59.2131008  53.0466534
  62.7076256  59.6940941  52.4767664  62.5236762  58.0929562  53.8875521
  61.7384587  57.5958368  54.4571184  63.0098501  57.3700246  53.2324910
  63.2591726  58.5128817  54.5737059  60.9148653  58.6490401  52.0445006
  61.2178933  58.5288526  50.8483994  59.7122519  58.3096686  52.5122366
  59.4973519  58.3540367  53.4981112  58.6907377  57.8034774  51.6045846
  59.0679758  56.9349915  51.0646561  57.4513288  57.3873684  52.3927616
  57.3733039  58.1255936  53.1909062  56.5810555  57.4643532  51.7409965
  57.5104897  55.9874343  52.9988833  58.5039631  55.8228490  53.4160441
  56.4716956  55.8399830  54.0943676  55.4778589  56.0039839  53.6778450
  56.5273465  54.8363145  54.5158571  56.6623616  56.5735453  54.8777150
  57.3055108  54.9367239  51.9198632  58.0875521  55.0314579  51.1665133
  57.3501293  53.9433017  52.3662070  56.3316471  55.0808534  51.4519795
  58.3318682  58.8425275  50.5524735  58.1338492  58.5055296  49.3804368
  58.2323394  60.1097474  50.9531002  58.3577346  60.3612532  51.9232137
  57.8784048  61.1603661  50.0071532  56.9455673  60.9099636  49.5019681
  57.6936102  62.4871712  50.7452711  56.9027140  62.3385482  51.4804539
  58.6306025  62.7024711  51.2588774  57.3316442  63.6551173  49.8408666
  58.1729072  63.8358634  49.1717566  56.4592016  63.3634028  49.2561909
  57.0204893  64.9221132  50.6151501  57.3311942  64.9742187  51.8226858
  56.4679492  65.8673934  50.0143924  58.9345877  61.2946311  48.9202569
  58.6086052  61.3899087  47.7314787  60.2118429  61.3037110  49.3062433
  60.4884422  61.2735242  50.2771609  61.2529088  61.4499187  48.2947251
  61.0108607  62.2884359  47.6417313  62.6153915  61.7107804  48.9409657
  63.2790525  62.0239926  48.1350181  62.4695111  62.5396442  49.6336444
  63.2349259  60.5378872  49.6792046  62.6570130  60.3482557  50.5837251
  63.1988352  59.6595226  49.0347861  64.6824321  60.8333775  50.0541559
  65.0819317  59.9618330  50.5727206  65.2433583  60.9967333  49.1339515
  64.8087810  62.0570676  50.9485268  64.4840412  62.9293864  50.3813367
  64.1543225  61.9197606  51.8092997  66.2078402  62.2623194  51.4166925
  66.8143714  62.3900008  50.6192483  66.2489595  63.0818229  52.0056094
  66.5087967  61.4543015  51.9426500  61.3082216  60.2282264  47.3851552
  61.5177718  60.3628850  46.1739084  61.1075081  59.0283301  47.9370898
  61.0148759  58.9038797  48.9351032  61.0912696  57.8411377  47.0869184
  61.9909763  57.8099284  46.4723835  61.0445538  56.5804829  47.9483544
  60.2350894  56.7640144  48.6548831  60.7937306  55.7229346  47.3240159
  62.3372941  56.2910125  48.7174309  62.6947383  57.2191579  49.1633912
  62.1012941  55.2619910  49.8107948  61.7442521  54.3333587  49.3655286
  63.0346817  55.0744818  50.3415759  61.3554558  55.6391061  50.5105160
  63.4354927  55.8247538  47.7724460  63.6331448  56.6009489  47.0331529
  64.3439799  55.6251534  48.3406994  63.1169696  54.9137636  47.2657519
  59.9187463  57.8774972  46.1129034  60.0670355  57.5264528  44.9352672
  58.7451977  58.3060636  46.5834143  58.6188550  58.5139380  47.5636821
  57.5934402  58.4266033  45.6970719  57.3986158  57.4735285  45.2053493
  56.3548519  58.8236971  46.5014155  56.1434985  58.0653287  47.2552764
  56.5158790  59.7851056  46.9891285  55.1081077  58.9653299  45.6722273
  54.8221274  60.1537396  45.0199823  55.5129805  60.9917053  45.1129085
  53.6762767  60.2839869  44.2581504  53.4641771  61.2231015  43.7470945
  52.8008707  59.2242770  44.1449236  51.8951178  59.3243365  43.5468436
  53.0731360  58.0372153  44.7897470  52.3829058  57.1982804  44.7010304
  54.2200350  57.9104151  45.5481120  54.4352134  56.9713576  46.0579838
  57.8647411  59.4377459  44.5914121  57.5482338  59.1925541  43.4220473
  58.4512557  60.5825886  44.9456787  58.6385672  60.7998691  45.9140810
  58.7838475  61.5810968  43.9362728  57.8892780  61.8622615  43.3805831
  59.3570325  62.8310056  44.6041417  60.1355056  62.4416471  45.2602506
  59.8097504  63.4594019  43.8371577  58.3669866  63.6612564  45.4245403
  57.8139956  62.9965897  46.0882572  59.0983302  64.7073129  46.2499276
  59.6512173  65.3726794  45.5868272  58.3763767  65.2865459  46.8255777
  59.7925986  64.2139189  46.9301144  57.3332729  64.3165807  44.5229643
  56.7820981  63.5472307  43.9822183  56.6406903  64.9011860  45.1284949
  57.8347672  64.9718838  43.8107984  59.7672798  61.0182466  42.9202543
  59.6626992  61.2961952  41.7195810  60.7351917  60.2269818  43.3840868
  60.8707724  60.0898272  44.3755029  61.6628664  59.5804679  42.4635905
  62.1668911  60.3286722  41.8518319  62.7177078  58.8020703  43.2514889
  63.2135300  59.5122747  43.9132058  62.1893499  58.0583369  43.8479775
  63.7555279  58.1099979  42.3824553  63.2809845  57.2765168  41.8645570
  64.1308710  58.8254257  41.6507569  64.9251008  57.5788651  43.1837980
  64.8741286  57.5205297  44.4121550  65.9872254  57.1859749  42.4918106
  66.7958094  56.8231593  42.9762259  65.9820613  57.2515955  41.4839571
  60.9258458  58.6564699  41.5025732  61.1829264  58.6644810  40.2931310
  59.9998163  57.8509862  42.0234381  59.7834303  57.8646842  43.0098907
  59.3170410  56.8765778  41.1789807  60.0143017  56.4564939  40.4540972
  58.7607762  55.7398158  42.0375182  58.3286065  56.1911892  42.9305975
  57.9745309  55.2537197  41.4599119  59.8019576  54.7084480  42.4442795
  60.6758047  55.2345881  42.8285563  59.3789908  54.0843466  43.2314889
  60.2131617  53.8334890  41.2699921  59.3188302  53.3672843  40.8565634
  60.6754942  54.4665056  40.5126031  61.1951163  52.7550269  41.6965349
  60.8373583  52.3196101  42.6295526  61.2148074  51.9880445  40.9222937
  62.5690460  53.2945118  41.8955172  62.5510948  54.0049287  42.6132117
  63.1867796  52.5467809  42.1773039  62.9009055  53.6976435  41.0309634
  58.1958325  57.4978011  40.3543449  57.9503997  57.0584304  39.2262713
  57.5051382  58.5080718  40.8886972  57.7294151  58.8669541  41.8057592
  56.3560032  59.0699499  40.1884288  55.6850098  58.2752303  39.8624108
  55.5902719  60.0455602  41.1011885  55.4234943  59.5703727  42.0678748
  56.3847369  61.3239252  41.2965889  56.5515231  61.7999546  40.3303183
  55.8291262  62.0022291  41.9441238  57.3449326  61.0889788  41.7558531
  54.2161095  60.3758183  40.5087155  53.7701691  61.1434055  41.1412088
  54.3858781  60.7811666  39.5112332  53.2784013  59.1886207  40.4183430
  53.1077778  58.7829920  41.4155655  52.3285721  59.5070582  39.9887835
  53.7234883  58.4207518  39.7855913  56.7550505  59.7655638  38.8944835
  55.9304718  59.8783057  37.9796063  57.9994535  60.2340356  38.7858167
  58.6631236  60.1412073  39.5414782  58.4151561  60.9492329  37.5841649
  57.7769281  61.8185782  37.4260420  59.8602350  61.4251084  37.7356430
  60.4660416  60.5940481  38.0968029  60.2287485  61.7462037  36.7613763
  59.9931084  62.5803580  38.7087370  58.9969946  63.1243893  39.1835771
  61.2292781  62.9614766  39.0091651  61.3764416  63.7262122  39.6522997
  62.0165749  62.4848394  38.5931344  58.2796530  60.0988443  36.3278504
  58.2020810  60.6525272  35.2249017  58.2465200  58.7773379  36.4654159
  58.3564720  58.3780121  37.3865830  58.1232097  57.8726291  35.3309810
  58.6142636  58.2961297  34.4548461  58.7916940  56.5330843  35.6682309
  59.8371459  56.7546465  35.8827995  58.3061974  56.1640808  36.5716851
  58.7112058  55.4706234  34.5785348  57.6767980  55.1329524  34.5146624
  58.9999401  55.9355913  33.6359127  59.6137148  54.2839916  34.8535992
  60.6794306  54.4738615  35.4774008  59.2574171  53.1582298  34.4462844
  56.6742295  57.6495445  34.9145057  56.4242244  56.8975410  33.9671551
  55.7221958  58.2961437  35.5782129  55.9564905  58.9397101  36.3205252
  54.3156798  58.0680808  35.2809684  54.0550941  57.0296574  35.4855925
  53.4418243  58.9713317  36.1505277  53.7361887  58.7063231  37.1660174
  53.7254725  60.0041881  35.9484106  51.9267708  58.8209438  36.0035602
  51.6812290  58.7473208  34.9441313  51.4372531  57.5774741  36.7236806
  51.6820406  57.6505797  37.7833190  50.3571328  57.4903437  36.6059983
  51.9205959  56.6973728  36.2995323  51.2187233  60.0585245  36.5290769
  51.5451053  60.9318186  35.9643366  50.1413569  59.9362342  36.4175954
  51.4610987  60.1965082  37.5827911  54.0458294  58.3354365  33.8014355
  54.3762258  59.4211972  33.3038735  53.4541561  57.3929670  33.0705094
  52.9440862  56.0812952  33.5103601  52.2756394  56.2209167  34.3599394
  53.7815371  55.4500491  33.8075186  52.2315465  55.5541251  32.2953815
  51.1743549  55.8131525  32.3532581  52.3377411  54.4701109  32.2537005
  52.8824862  56.1946142  31.1283592  52.1581882  56.2802329  30.3183217
  53.7674190  55.6688915  30.7697380  53.2701306  57.5882588  31.6292111
  54.2144234  57.9329519  31.2077896  52.1811385  58.6045138  31.3285382
  51.3502341  58.9459688  32.1728464  52.1999540  59.0890927  30.0908338
  52.9365472  58.8157180  29.4561716  51.2031383  60.0437625  29.6223789
  50.9924577  60.7746504  30.4030938  51.6855635  60.7924662  28.3637408
  52.6378906  61.2743248  28.5850678  51.8628642  59.8302560  27.1940845
  50.9107827  59.3483274  26.9718569  52.2036707  60.3816524  26.3177785
  52.6010520  59.0720281  27.4553692  50.7316649  61.8009478  28.0079199
  51.0343762  62.2654457  27.2242057  49.8865209  59.3390076  29.3136054
  49.8739019  58.2551050  28.7296277  48.8172016  59.8339170  29.6629770
  43.2479030  14.3844483  63.5190128  43.7615096  14.4998380  64.3809840
  43.5485954  13.5290866  63.0739951  42.2670113  14.5406095  63.7022196
  43.6447147  15.4525997  62.6086555  44.0724500  15.0259922  61.7013806
  42.4320199  16.3034627  62.2243933  41.9961278  16.6773244  63.1508514
  42.8024092  17.1413099  61.6336954  41.3721948  15.5544816  61.4320986
  41.8518883  15.0777821  60.5772579  40.9348963  14.7907596  62.0752166
  40.2786453  16.4911203  60.9421389  39.8348242  16.9855962  61.8062079
  40.7305529  17.2378542  60.2892473  39.2001599  15.7385766  60.1801774
  39.6618661  15.2677765  59.3122631  38.7931403  14.9694093  60.8365430
  38.1033426  16.6381958  59.7311674  38.4802159  17.3507411  59.1226072
  37.4102376  16.1002470  59.2308509  37.6751019  17.0742232  60.5352751
  44.7190848  16.3359922  63.2361230  45.0291779  17.4093215  62.7200615
  45.2865215  15.8759203  64.3541205  44.9877742  15.0053305  64.7699604
  46.2927931  16.6689244  65.0554428  45.9636452  17.6926047  65.2338793
  46.6422331  16.0211388  66.4089377  47.4784877  16.5585822  66.8560755
  45.4456687  16.0775279  67.3447015  44.6090983  15.5398636  66.8984191
  45.7066386  15.6163676  68.2972383  45.1620207  17.1168474  67.5104135
  47.1141799  14.5851719  66.2202315  48.0019084  14.5740672  65.5878416
  47.3544956  14.1506669  67.1905683  46.3243256  14.0017881  65.7470566
  47.5293555  16.8558613  64.1853572  48.1829758  17.9059953  64.2286381
  47.8786170  15.8422455  63.3909887  47.3999651  14.9535041  63.4246108
  49.0158401  15.9817808  62.4872910  49.9087223  16.2530947  63.0505399
  49.2767180  14.6616741  61.7652806  49.4276947  13.8792632  62.5090134
  48.4074148  14.4185838  61.1542821  50.4236727  14.7546181  60.9384824
  50.5678259  13.9151127  60.4957067  48.7815868  17.1027388  61.4830537
  49.7014017  17.8672657  61.1679408  47.5546848  17.2206948  60.9726549
  46.8346057  16.5396578  61.1670105  47.2391779  18.3224300  60.0695380
  47.9211919  18.3127127  59.2193252  45.8062000  18.1867789  59.5486916
  45.1458915  18.4983043  60.3580395  45.7077086  18.8796408  58.7130232
  45.4239644  16.7856110  59.0933386  45.4234867  16.1373446  59.9696099
  44.4179841  16.8327377  58.6763472  46.3745436  16.2293022  58.0551417
  46.9532024  17.0278479  57.2882189  46.5445595  14.9929865  58.0051010
  47.4220080  19.6624808  60.7684299  47.9690152  20.6093070  60.1881219
  46.9663874  19.7608721  62.0190238  46.4842253  18.9927533  62.4635600
  47.1016623  21.0108399  62.7558834  46.6733451  21.8307854  62.1794000
  46.3665015  20.9172260  64.0921816  46.8268334  20.1059110  64.6560626
  46.5285852  21.8599021  64.6148580  44.8774762  20.6609899  63.9626407
  44.4598140  21.3448873  63.2237608  44.7289568  19.6334319  63.6307242
  44.1441079  20.8570699  65.2722519  44.7561980  20.8963911  66.3395576
  42.8254420  20.9886698  65.1988088  42.2865396  21.1219654  66.0425610
  42.3669469  20.9549142  64.2995067  48.5667960  21.3631750  62.9792335
  48.9586496  22.5252198  62.8385927  49.3952993  20.3725578  63.3137491
  49.0648731  19.4321606  63.4767551  50.8116282  20.6539952  63.5225183
  50.9255347  21.5125836  64.1842965  51.5031166  19.4502681  64.1609929
  51.2249412  18.6178062  63.5146766  52.5810447  19.6040696  64.1108329
  51.0995980  19.1327261  65.6042288  50.0517627  18.8330833  65.6231048
  51.9583533  18.0068374  66.1577979  53.0063550  18.3059406  66.1396715
  51.6599350  17.7924426  67.1839959  51.8253144  17.1137958  65.5471607
  51.2002118  20.3644355  66.4912924  50.5385478  21.1423047  66.1102155
  50.9071023  20.1050922  67.5086071  52.2271806  20.7297217  66.4915658
  51.4968737  21.0363618  62.2185366  52.3817986  21.8981133  62.2096329
  51.1009331  20.4178979  61.1048519  50.4697678  19.6297221  61.1274010
  51.6296110  20.8439761  59.8134352  52.7183278  20.7914121  59.8190870
  51.1020647  19.9302548  58.7067508  50.0335973  19.8006936  58.8790602
  51.2567123  20.4490618  57.7606940  51.7762397  18.5661402  58.6532297
  51.9470570  18.2261206  59.6746547  51.1069357  17.8708694  58.1465417
  53.1017110  18.6252278  57.9107795  52.9257295  19.0474280  56.9213976
  53.7808167  19.2723779  58.4658577  53.7210320  17.2436846  57.7691149
  54.7511038  17.3654423  57.4341108  53.7121557  16.7649415  58.7483112
  52.9799099  16.3954048  56.7956101  52.9883852  16.8386329  55.8880988
  53.4230890  15.4900422  56.7322796  52.0255108  16.2821042  57.1060684
  51.2633338  22.2958821  59.5284233  52.1086201  23.0890536  59.0914746
  50.0056052  22.6662605  59.7832262  49.3133369  21.9986712  60.0917525
  49.5851171  24.0453726  59.5594369  49.8027165  24.3411994  58.5331639
  48.0808017  24.1763589  59.7970241  47.5313995  23.4972099  59.1450938
  47.8385735  23.9565225  60.8367825  47.4244383  25.8273573  59.4679418
  46.1629109  25.5392334  59.7752392  50.3546412  25.0086687  60.4551306
  50.7584091  26.0902941  60.0145819  50.5585890  24.6383658  61.7215140
  50.1677438  23.7810758  62.0853729  51.2875521  25.5097965  62.6373456
  50.8707160  26.5162126  62.5989603  51.1806603  24.9913288  64.0708666
  51.5035108  23.9514437  64.1209254  51.7968112  25.5950008  64.7372284
  49.5070572  25.0312371  64.7609143  49.8339932  24.5278501  65.9477641
  52.7456812  25.6564383  62.2225341  53.3188360  26.7455527  62.3336076
  53.3699725  24.5709801  61.7617991  52.9406250  23.6572974  61.7925234
  54.7305941  24.6783612  61.2496230  55.3812522  25.1109167  62.0096486
  55.2647645  23.2955680  60.8790548  54.6506274  22.8873279  60.0763874
  56.2928688  23.3995628  60.5322311  55.2286329  22.4211240  61.9918456
  55.5684373  21.5610604  61.7341184  54.7852439  25.6097361  60.0476025
  55.6961921  26.4394860  59.9362894  53.8159432  25.4932574  59.1379620
  53.1059411  24.7777592  59.2016694  53.7659891  26.4160266  58.0151751
  54.6872009  26.3132228  57.4416775  52.9158602  26.1505260  57.3867727
  53.6196600  27.8591427  58.4597250  54.2821900  28.7549505  57.9314038
  52.7588271  28.1006986  59.4500656  52.1934989  27.3566232  59.8332824
  52.5522954  29.4569752  59.9530412  52.3307826  30.1570118  59.1474483
  51.4056983  29.4760978  60.9782000  51.5307349  28.6401514  61.6664295
  51.4133717  30.7825832  61.7603655  51.2879076  31.6190217  61.0728119
  50.5958981  30.7798189  62.4813579  52.3618102  30.8854414  62.2876073
  50.0640536  29.2590671  60.2713655  49.8736784  30.1444476  59.6647689
  50.1801200  28.3919261  59.6212158  48.8977630  29.0317295  61.2131005
  48.7807757  29.8987091  61.8633007  47.9856397  28.8866219  60.6342446
  49.0872186  28.1461882  61.8197495  53.8428632  30.0023751  60.5500860
  54.2573476  31.1332172  60.2623832  54.4942017  29.2096645  61.4022227
  54.1399000  28.2971485  61.6509882  55.7156747  29.6753438  62.0456413
  55.5309870  30.6223134  62.5528279  56.1904522  28.6554479  63.0754042
  55.3029363  28.4283669  63.6660386  56.5256229  27.7537742  62.5628175
  57.3002118  29.1592544  63.9972711  58.0710052  29.6401571  63.3950162
  56.7448215  30.1580853  65.0010443  55.9742419  29.6777449  65.6040194
  57.5482489  30.5069278  65.6498232  56.3134157  31.0063603  64.4696132
  57.9718206  28.0023128  64.7050993  58.4055330  27.3269244  63.9676419
  58.7589136  28.3818730  65.3566512  57.2353950  27.4637272  65.3015067
  56.8039449  29.9397441  61.0159222  57.5746215  30.8971899  61.1498329
  56.8870142  29.1019286  59.9815559  56.3415186  28.2529316  59.9398672
  57.8305341  29.3709246  58.9031212  58.8344533  29.4945189  59.3092860
  57.8443929  28.2079856  57.9128072  58.1742650  27.3247595  58.4597946
  56.8185763  28.0628390  57.5740852  58.7497476  28.4262554  56.7089363
  58.6805499  27.5517528  56.0619759  58.3996004  29.3058366  56.1687180
  60.1956250  28.6323026  57.1285899  60.2581069  29.5454900  57.7204375
  60.5041079  27.7830200  57.7382266  61.1097779  28.7477313  55.9231959
  60.9104355  27.9052782  55.2609000  60.8777525  29.6787022  55.4059372
  62.5440519  28.7422564  56.3133412  62.7593618  27.8794944  56.7922808
  63.1182474  28.8204920  55.4861298  62.7290716  29.5230622  56.9267000
  57.4859069  30.6746360  58.1972190  58.3797802  31.4417484  57.8202972
  56.1924766  30.9415683  58.0057874  55.4758179  30.2685495  58.2371860
  55.7850158  32.2064240  57.4043610  56.2434994  32.3154002  56.4214998
  54.2669751  32.2490805  57.2421952  53.9981826  31.5120136  56.4855036
  53.8279160  31.9641683  58.1983083  53.7403040  33.6124871  56.8299212
  53.7976236  34.2733536  57.6948320  54.3869797  33.9928462  56.0392022
  52.3149721  33.5579777  56.3317809  51.5792104  32.6322344  56.7329094
  51.9277915  34.4440922  55.5416225  56.2540378  33.3874558  58.2422388
  56.7416240  34.3872059  57.7029332  56.1135951  33.2929528  59.5653635
  55.7130541  32.4727991  59.9978148  56.4782400  34.4163486  60.4196580
  55.9611567  35.3180961  60.0916709  56.0805629  34.1240865  61.8678740
  56.4644703  33.1351370  62.1182604  56.5652683  34.8712419  62.4963003
  54.5767708  34.1596280  62.1056174  54.2510986  35.1943965  61.9993506
  54.1069772  33.5503008  61.3335317  54.0825304  33.5465149  63.7265504
  54.6930380  34.8510928  64.7871639  54.2173664  35.7934456  64.5154899
  54.4616562  34.6140099  65.8256026  55.7726495  34.9419268  64.6676261
  57.9646464  34.7415185  60.3362875  58.3708488  35.8341410  60.7430476
  58.7813027  33.8232398  59.8227442  58.4070507  32.9270793  59.5453800
  60.2130851  34.0470877  59.6812441  60.5623134  34.7336071  60.4524962
  60.9666805  32.7214547  59.8281664  60.3289631  31.8874758  59.5350879
  61.8578465  32.7347166  59.2006736  61.4300275  32.4367524  61.2252120
  60.5737414  31.8721304  62.1526116  59.5510749  31.6366318  61.8580040
  60.9996470  31.6067458  63.4366838  60.3136251  31.1652947  64.1595916
  62.2927143  31.8998912  63.8052983  62.6325896  31.6882132  64.8190917
  63.1575838  32.4611471  62.8921463  64.1813836  32.6962150  63.1831400
  62.7277368  32.7255488  61.6096549  63.4124752  33.1668926  60.8854665
  60.5952813  34.6817817  58.3510522  61.7613209  35.0496828  58.1723446
  59.6558747  34.8199266  57.4212338  58.6931801  34.5901302  57.6225099
  59.9931203  35.2604057  56.0764477  60.8300934  34.6681675  55.7065434
  58.8045812  35.0664634  55.1362796  57.9613061  35.6605313  55.4885159
  59.0795106  35.3868640  54.1313629  58.5237605  34.0134313  55.1172462
  60.4234049  36.7250059  56.0717305  60.1194022  37.4956699  56.9866603
  61.1480403  37.1045468  55.0153966  61.4844074  36.4310201  54.3421074
  61.5146597  38.5039083  54.8354121  62.0016215  38.8789386  55.7355897
  62.4815194  38.6511474  53.6591230  61.9248532  38.3992170  52.7564863
  62.7790286  39.6990772  53.6212884  63.7224129  37.7748667  53.7505923
  63.4023694  36.7329195  53.7549697  64.3358075  37.9623003  52.8692764
  64.5364084  38.0606959  55.0052105  63.9007549  37.8880947  55.8736876
  65.3808254  37.3719335  55.0310119  65.0494090  39.4923115  55.0293392
  65.5087712  39.7053984  54.0641031  64.1982343  40.1561954  55.1805312
  66.0466619  39.7106044  56.1118367  66.8356570  39.0958335  55.9716830
  66.3601345  40.6705261  56.0922114  65.6210820  39.5136196  57.0063633
  60.2947316  39.3805833  54.6073145  60.3811738  40.6030734  54.7612450
  59.1626324  38.7787412  54.2406106  59.1422766  37.7868995  54.0510454
  57.9344779  39.5412605  54.0620894  58.0507952  40.2618655  53.2525847
  56.7920553  38.5908057  53.7090805  57.1866003  37.8889120  52.9743841
  56.5390809  38.0546230  54.6237455  55.5477026  39.2576009  53.1535704
  55.3415221  40.1546404  53.7374459  55.7332970  39.5348256  52.1158792
  54.3462166  38.3192674  53.2219493  54.0775909  38.1902757  54.2704245
  53.5190983  38.7902838  52.6908012  54.6385611  36.9580304  52.6015320
  54.9436460  37.1132453  51.5666735  55.4570188  36.4990660  53.1561290
  53.4516783  36.0631757  52.6390995  52.6932977  36.4880832  52.1248892
  53.6864946  35.1747569  52.2199655  53.1690783  35.9188775  53.5979605
  57.5815073  40.3351801  55.3115730  56.9954643  41.4183503  55.2127754
  57.9269090  39.8157687  56.4906381  58.3642053  38.9059258  56.5231523
  57.6497763  40.4944827  57.7500359  57.1998680  41.4696186  57.5635101
  56.6729331  39.6553062  58.5768285  57.1278210  38.7044339  58.8543502
  56.3894336  40.1986609  59.4782128  55.4026851  39.3282045  57.8568448
  54.4058698  40.2536297  57.6428575  53.4091303  39.6839852  56.9896871
  52.5199887  40.2553677  56.7231384  53.7236466  38.4205293  56.7731860
  53.1519074  37.7394317  56.2943121  54.9650733  38.1718509  57.3068375
  55.4016911  37.1760568  57.2302848  58.9093552  40.7644930  58.5629051
  58.8066211  41.2123605  59.7112667  60.0932755  40.5079800  58.0038276
  60.1526556  40.1167884  57.0745577  61.3318511  40.7277867  58.7419676
  61.2703636  40.1669715  59.6746009  62.5219121  40.2071495  57.9365473
  62.6020533  40.7652780  57.0037183  63.4367002  40.3346180  58.5153519
  62.3768980  39.1497257  57.7153575  61.5524310  42.1915599  59.0944468
  62.3919338  42.4906119  59.9502311  60.8274578  43.1115709  58.4579638
  60.1847233  42.8622478  57.7198380  60.9964534  44.5226556  58.7793787
  62.0423547  44.7939638  58.6359157  60.1386881  45.3741453  57.8451021
  59.0877517  45.1203437  57.9837293  60.2901965  46.4292923  58.0727208
  60.4252106  45.1812197  56.8112821  60.6448912  44.8127181  60.2321136
  61.3521380  45.5671211  60.9090604  59.5561214  44.2247793  60.7317228
  59.0249574  43.5802090  60.1638379  59.0721702  44.5246803  62.0711378
  59.8005294  45.1390199  62.6004571  57.7477488  45.2904885  61.9968704
  57.4506293  45.5676305  63.0083107  57.9337159  46.1922139  61.4134260
  56.6475587  44.4950294  61.3521103  55.8387147  43.6655307  62.1072120
  56.0134467  43.5933251  63.1806897  54.8319638  42.9419778  61.5275873
  54.2041271  42.2887310  62.1335506  54.6075956  43.0503259  60.1745571
  53.5951076  42.3239656  59.6016559  53.1172410  41.7827702  60.2343886
  55.3936020  43.8682466  59.3995960  55.2226944  43.9495470  58.3261524
  56.4042268  44.5885297  59.9912748  57.0296922  45.2466655  59.3881576
  58.8644770  43.3108080  62.9670506  58.4283447  43.4855921  64.1094071
  59.1412208  42.0990544  62.4974722  59.4017376  41.9754775  61.5295058
  59.0211675  40.9153040  63.3364735  58.3354946  41.1523555  64.1499589
  58.4365265  39.7560210  62.5262224  59.1163341  39.5010648  61.7132285
  58.3045599  38.8894339  63.1740741  57.4717050  40.0507332  62.1134713
  60.3452617  40.4885768  63.9528820  60.3867478  39.4770683  64.6577723
  61.4181840  41.2334074  63.7143798  61.3246753  42.0876567  63.1837071
  62.7542829  40.8156980  64.1221437  62.9167253  39.7721922  63.8523152
  63.8119479  41.6728837  63.4207684  64.7958644  41.4110617  63.8099430
  63.7869031  41.4919392  62.3461839  63.6560031  43.1451793  63.6096094
  62.9240572  43.9969430  62.8373926  62.3899062  43.5606790  61.9933213
  63.0275881  45.2778964  63.3182635  62.5776701  46.0922762  62.9252508
  63.8406382  45.2726421  64.4198931  64.2408252  46.3171716  65.2422839
  63.8796586  47.3218318  65.0224768  65.0698268  46.0147511  66.2843085
  65.4059651  46.8091422  66.9506821  65.5000780  44.7065576  66.5189714
  66.1617423  44.4786127  67.3546394  65.1039531  43.6678386  65.7058939
  65.4644376  42.6647880  65.9340188  64.2567152  43.9454625  64.6308153
  62.9668743  40.8514212  65.6353449  63.7839112  40.0738601  66.1433355
  62.2871964  41.7158845  66.3981306  61.2957684  42.7409131  66.0292429
  60.3246950  42.2705438  65.8747458  61.6086435  43.2374387  65.1107275
  61.3068408  43.6593010  67.2042058  60.3406573  44.1560165  67.2928740
  62.0894586  44.4076843  67.0795735  61.5795563  42.8035137  68.3686436
  60.6586986  42.3485180  68.7334710  62.0554208  43.3580840  69.1774108
  62.5293203  41.7153244  67.8504356  63.5728623  41.9890119  68.0060422
  62.2531444  40.3800833  68.5146789  62.8860773  40.0657397  69.5285443
  61.3281556  39.5864389  67.9820981  60.8499293  39.8800576  67.1423440
  60.9371007  38.3233201  68.5938996  61.1466282  38.3451011  69.6633494
  59.4380003  38.0877633  68.3938969  59.2353358  37.8591840  67.3475805
  59.0986746  37.2611728  69.0181615  58.5858950  39.2706399  68.7476205
  58.5454820  39.7503135  70.0439465  59.1432970  39.2613084  70.8130961
  57.7593259  40.8357713  70.3680514  57.7357955  41.2054963  71.3931614
  57.0047818  41.4519032  69.3974008  56.3836360  42.3104683  69.6526337
  57.0340766  40.9842321  68.1035899  56.4361493  41.4708206  67.3329961
  57.8206417  39.8993057  67.7827331  57.8444690  39.5273133  66.7584510
  61.7049842  37.1242729  68.0523883  61.5164586  36.0125200  68.5560406
  62.5611918  37.3126436  67.0470913  62.7519202  38.2360412  66.6850706
  63.2065490  36.1710991  66.4060022  62.4541327  35.5216768  65.9585432
  64.1550652  36.6492673  65.3068780  64.6562429  37.5348253  65.6976555
  64.8870249  35.8564218  65.1528292  63.4918849  36.9856633  63.9896534
  62.1234289  37.1936859  63.9047432  61.5208253  37.1131700  64.8094451
  61.5221435  37.4984811  62.6994221  60.4457978  37.6621352  62.6465150
  62.2906594  37.5954599  61.5597202  61.6993233  37.8976386  60.3548058
  60.7496609  38.0202962  60.4233342  63.6503237  37.3910576  61.6198999
  64.2591670  37.4682668  60.7190952  64.2416304  37.0872802  62.8275425
  65.3176855  36.9219739  62.8812023  63.9715604  35.3072407  67.3980085
  64.1022291  34.0966187  67.1873949  64.4846065  35.8918723  68.4707706
  64.3140183  36.8744586  68.6305303  65.3244681  35.1755124  69.4165962
  65.1776451  34.1028193  69.2906138  66.8083919  35.4959646  69.1988472
  66.9136182  36.5808078  69.2107517  67.3611877  35.0686257  70.0354464
  67.3609070  34.9487323  67.8955736  67.1756910  33.8749486  67.8675655
  66.8350703  35.4292464  67.0705257  68.8499606  35.2082733  67.7653434
  69.0271960  36.2786743  67.8698812  69.3672963  34.6752496  68.5630582
  69.3740219  34.7377609  66.4198510  69.1952290  33.6652849  66.3428524
  68.8165550  35.2554813  65.6392771  70.8264279  35.0108540  66.2553819
  71.3432068  34.5308634  66.9783261  71.1302756  34.6825594  65.3498438
  70.9922609  36.0046212  66.3262709  64.9156224  35.5421150  70.8329272
  64.2552458  36.5640391  71.0496822  65.2877156  34.7245493  71.8185043
  66.0707133  33.4820808  71.7172147  67.1165216  33.7280066  71.5330789
  65.6888100  32.8804827  70.8923943  65.8601533  32.8290323  73.0432652
  66.7562873  32.2709084  73.3144490  65.0135748  32.1457269  72.9761845
  65.5857885  33.9194122  74.0139112  66.5429230  34.2678844  74.4019317
  64.9433213  33.6251062  74.8438025  64.9148887  35.0347303  73.2028940
  63.8281801  35.0146401  73.2851073  65.4282295  36.4057719  73.6134158
  66.5399129  36.8047456  73.2628306  64.6035238  37.1294778  74.3654640
  63.6765448  36.7966012  74.5890761  64.9954802  38.4513401  74.8374939
  65.4405508  39.0509298  74.0434514  63.7920427  39.2103182  75.4085669
  63.3320793  38.6085864  76.1924366  64.2329360  40.5465595  75.9881488
  64.6926107  41.1490734  75.2047095  63.3667412  41.0727168  76.3893540
  64.9557034  40.3763496  76.7861070  62.7330510  39.4093060  74.3360756
  62.3988334  38.4384681  73.9701873  61.8853949  39.9496265  74.7575404
  63.1545847  39.9826925  73.5104618  66.0928607  38.2889112  75.8797736
  65.8893657  37.6582276  76.9235762  67.2612153  38.8568189  75.6009358
  67.3888654  39.3512150  74.7295133  68.3971526  38.7473383  76.5053176
  68.4472284  37.7386995  76.9154875  69.6988908  39.0373630  75.7637857
  69.7140155  38.4238579  74.8629627  69.6980767  40.0911361  75.4851074
  70.9285411  38.7367825  76.6008123  70.8351057  38.7836321  77.8456316
  71.9921840  38.4533699  76.0129467  68.2046465  39.7146695  77.6668148
  68.1072848  40.9284289  77.4614058  68.1487548  39.1760458  78.8860119
  68.1969586  38.1757641  79.0172075  67.9447711  40.0177304  80.0584281
  67.1901496  40.7868201  79.8936660  67.5173945  39.1589681  81.2637955
  67.4726282  39.7877203  82.1530457  66.1503748  38.5427897  81.0096829
  66.1944702  37.9134864  80.1207880  65.8585833  37.9379986  81.8682782
  65.4169273  39.3346397  80.8575978  68.5551933  38.0785676  81.5607826
  69.5131298  38.5466748  81.7873560  68.2294513  37.4864104  82.4159678
  68.6647338  37.4304378  80.6912831  69.1855901  40.8268049  80.4018575
  69.0880300  41.8189311  81.1335635  70.3531665  40.4335978  79.8992210
  70.3861586  39.6154722  79.3078824  71.6050471  41.1100633  80.2130785
  71.4681002  41.7704466  81.0693721  72.6863671  40.0801433  80.5569764
  72.3037800  39.4795512  81.3822130  72.8161178  39.4484731  79.6781946
  74.0237242  40.6835487  80.9480671  74.4350719  41.1893956  80.0745610
  73.8448188  41.4123479  81.7386009  75.0078898  39.6396292  81.4370272
  74.6056234  38.7753857  82.2435921  76.1822977  39.6818783  81.0140661
  72.0924143  41.9986779  79.0771659  72.6497385  43.0701882  79.3294997
  71.8935944  41.5744246  77.8305313  71.4445231  40.6844392  77.6681724
  72.3572019  42.3338653  76.6784137  73.3431364  42.7329298  76.9166989
  72.4824127  41.4165220  75.4611801  71.5015140  41.0162818  75.2047710
  72.8748612  41.9835744  74.6170617  73.1602302  40.5949614  75.6929149
  71.4493553  43.5052624  76.3375511  71.7782743  44.2765312  75.4313625
  70.3176238  43.6504806  77.0258718  70.0309224  42.9246451  77.6670149
  69.4402814  44.7955672  76.8440256  69.9141223  45.5267671  76.1891053
  68.1165216  44.3529233  76.2078720  67.7450152  43.5764572  76.8765892
  67.4238330  45.1945178  76.2088644  68.2336436  43.7909519  74.7897396
  69.0100287  43.0259959  74.7767257  66.9160874  43.1822193  74.3422260
  66.1392599  43.9467364  74.3545384  67.0218550  42.7886901  73.3312618
  66.6402335  42.3737421  75.0192560  68.6804556  44.8630162  73.8173368
  69.6534874  45.2481549  74.1222578  68.7559340  44.4378712  72.8165091
  67.9539206  45.6755571  73.8125262  69.1594120  45.5353763  78.1428497
  68.4103392  46.5186946  78.1270997  69.7270495  45.0937506  79.2639613
  70.2269675  44.2161804  79.2567472  69.6541805  45.8319899  80.5072931
  70.4731551  45.4762479  81.1324550  69.8159498  46.8811178  80.2597840
  68.3564624  45.7015143  81.2745530  68.2069440  46.3565640  82.3136315
  67.4165353  44.8826384  80.8098635  67.5799878  44.3606584  79.9607937
  66.1156992  44.7528399  81.4634933  65.7571008  45.7351073  81.7711572
  65.0995115  44.1408658  80.5096720  65.4442842  43.1161682  80.3710144
  64.1232540  44.1327370  80.9943939  64.9868835  44.8282550  79.1500471
  65.9707922  44.8548365  78.6817331  64.0206822  44.0714989  78.2548732
  63.0363721  44.0448945  78.7223393  63.9504417  44.5727426  77.2895122
  64.3809524  43.0530786  78.1095262  64.5486861  46.2760244  79.3119449
  65.2799224  46.8120079  79.9170188  64.4751510  46.7457719  78.3311130
  63.5765672  46.3091047  79.8038692  66.2836438  43.9074484  82.7179310
  66.1397538  42.6848025  82.6996424  66.5982833  44.5773544  83.8278959
  66.7381985  45.5774393  83.8091024  66.8053362  43.8733595  85.0893721
  67.5240461  43.0652711  84.9531794  67.3497916  44.8392947  86.1428984
  66.5902324  45.5743880  86.4089940  67.6479121  44.2868029  87.0339522
  68.5515692  45.6088373  85.6944781  69.7105100  44.9970047  85.2677977
  70.5965615  45.9186068  84.9377031  71.5835751  45.6351165  84.5722767
  70.0542473  47.1069413  85.1366860  70.4987807  47.9985884  84.9709894
  68.7762521  46.9399982  85.6097180  68.1609049  47.8106901  85.8363116
  65.5163831  43.2260338  85.5798812  65.5101306  42.0589259  85.9892822
  64.4117101  43.9722777  85.5485653  64.4419622  44.9130074  85.1822160
  63.1506953  43.4818968  86.0899248  63.3268116  42.9464882  87.0228878
  62.2108354  44.6579597  86.3705341  61.3379130  44.2697281  86.8953027
  62.7389277  45.3605637  87.0151783  61.7652061  45.3694192  85.1046306
  62.2002153  44.9723154  84.0027914  60.9750854  46.3313630  85.2129983
  62.4506330  42.4839497  85.1776067  61.5841493  41.7426185  85.6527687
  62.7972103  42.4450167  83.8888385  63.5138910  43.0493990  83.5130857
  62.0923749  41.5551621  82.9723671  61.0393336  41.8319122  82.9212558
  62.6920842  41.6582295  81.5730727  62.6821171  42.7105356  81.2890804
  63.7229448  41.3110183  81.6428650  61.9575423  40.8481867  80.5296778
  60.8956720  41.3908252  79.8231073  60.5929670  42.4164011  80.0344440
  60.2252755  40.6570903  78.8669045  59.3916507  41.0964020  78.3190207
  60.6145741  39.3622991  78.6060897  59.9496301  38.6263176  77.6544938
  59.2347047  39.1119777  77.2366235  61.6665913  38.8005901  79.2933151
  61.9749201  37.7755425  79.0876183  62.3322702  39.5432438  80.2477291
  63.1676228  39.1053389  80.7941039  62.1288231  40.1116584  83.4530144
  61.1933477  39.3478312  83.1918042  63.1952031  39.7172756  84.1523097
  64.0108807  40.3048984  84.2496175  63.2239126  38.3893565  84.7544862
  63.1035043  37.6279015  83.9839102  64.5602377  38.1619440  85.4614323
  64.7077999  38.9153440  86.2351979  64.5815647  37.1697955  85.9123053
  66.0088834  38.2555534  84.3890286  66.9038004  38.0143854  85.3428944
  62.0724436  38.2104195  85.7335402  61.4710067  37.1326458  85.8095108
  61.7494007  39.2608393  86.4896457  62.2495923  40.1330090  86.3935851
  60.7151372  39.1661009  87.5134374  60.7109846  38.1683475  87.9522656
  60.9885573  40.1859998  88.6205904  61.0787941  41.1674813  88.1551330
  60.1353228  40.1831903  89.2988845  62.2532521  39.8776253  89.3984466
  62.8260436  38.7851449  89.1984153  62.6741760  40.7262863  90.2114801
  59.3187962  39.3744239  86.9372418  58.4031115  38.5945168  87.2195615
  59.1314984  40.4187940  86.1283464  59.8892366  41.0327229  85.8656231
  57.7833659  40.7532883  85.6812196  57.0860344  40.7705765  86.5187929
  57.7771660  42.1236027  84.9806055  58.6739570  42.2116705  84.3673271
  56.5419728  42.2683756  84.0980346  55.6447228  42.1808760  84.7107229
  56.5550537  43.2434141  83.6109726  56.5420183  41.4844611  83.3406857
  57.8300473  43.2379066  86.0292753  56.8951384  43.1946545  86.5880019
  58.6618510  43.0095157  86.6956383  58.0106180  44.6271898  85.4550492
  57.1788959  44.8564896  84.7888963  58.0375298  45.3553068  86.2657407
  58.9456080  44.6713500  84.8965303  57.2135651  39.6622468  84.7846615
  56.0059170  39.3971014  84.8178735  58.0462919  39.0160621  83.9736631
  59.0124453  39.3075746  83.9328301  57.6123084  37.9363348  83.0950949
  56.5256586  37.8519342  83.1080497  58.0924423  38.1485251  81.6495954
  59.1765619  38.2615820  81.6477567  57.7053838  36.9590215  80.7830783
  56.6213010  36.8456015  80.7840518  58.0520108  37.1239309  79.7629041
  58.1651927  36.0542753  81.1807078  57.5063595  39.4423559  81.0800844
  57.8850530  40.2605118  81.6927123  57.8865715  39.5441189  80.0636285
  55.9887843  39.4865768  81.0592245  55.6078261  39.3853316  82.0754528
  55.6581976  40.4372493  80.6408545  55.6093445  38.6689368  80.4463704
  58.1382019  36.6258645  83.6604380  59.3306012  36.5066902  83.9644897
  57.2478526  35.6462899  83.7989035  56.2968674  35.8006409  83.4957497
  57.5768277  34.3700270  84.4151586  58.5325906  34.4393315  84.9345943
  56.4941035  33.9892000  85.4305935  55.5863118  33.7856637  84.8626265
  56.8283920  33.0745953  85.9203378  56.2065492  35.0524635  86.4830731
  55.8664506  35.9526560  85.9711285  55.4124065  34.6816548  87.1311012
  57.4318548  35.3785776  87.3200191  57.8025570  34.4574000  87.7695864
  58.1980991  35.7980835  86.6681112  57.0967166  36.3776978  88.4157701
  58.0330594  36.7490849  88.8322247  56.5479112  37.2037208  87.9634452
  56.2773140  35.7732604  89.5002058  56.7858475  35.0081014  89.9197592
  56.0803261  36.4718594  90.2025272  55.4094468  35.4294453  89.1145938
  57.7334161  33.2419847  83.4057793  58.0554371  32.1173398  83.8029142
  57.5137966  33.5040536  82.1190543  57.2438585  34.4366526  81.8406806
  57.5965928  32.4684305  81.0875299  58.3426780  31.7274334  81.3745479
  56.2519377  31.7634179  80.9073248  55.4591105  32.4954540  80.7535476
  56.2963407  31.0912641  80.0503897  55.8449088  30.9322416  82.0825262
  55.2325843  31.4675939  83.1963909  54.9921579  30.5061937  84.0683576
  54.5100578  30.7286757  85.0202925  55.4251232  29.3656434  83.5619150
  55.3730793  28.4597826  84.0055449  55.9646488  29.6057876  82.3211036
  56.3808336  28.7833449  81.7393137  58.0556147  33.0977949  79.7836325
  57.2502083  33.3820508  78.8884626  59.3581600  33.3329304  79.6356253
  60.4310592  33.1578377  80.6273353  60.7324833  32.1108515  80.6599508
  60.0742320  33.4634671  81.6108819  61.5113464  34.0496068  80.1114114
  62.4838346  33.6666702  80.4208065  61.3761778  35.0570488  80.5049741
  61.3669055  34.0341347  78.6251064  61.8950556  33.1632573  78.2368680
  61.7384196  34.9329484  78.1329574  59.8611213  33.8849802  78.3748648
  59.3740485  34.8438929  78.1978199  59.5796232  32.9512303  77.2081459
  59.5685543  31.7260362  77.3518050  59.3462928  33.5466067  76.0407150
  59.3143169  34.5546683  75.9869673  59.0867713  32.7828678  74.8301749
  59.6506662  31.8506302  74.8626527  57.5949051  32.4491502  74.6896545
  57.2832017  31.9935468  75.6295299  57.0709771  33.3952643  74.5537588
  57.2592463  31.5133655  73.5365543  56.1951693  31.2848399  73.5966971
  57.4637638  32.0473726  72.6085937  58.1981596  29.9737314  73.5538394
  57.5476948  29.1928706  75.0282403  56.4732977  29.0456864  74.9182095
  58.0331482  28.2277670  75.1731911  57.7401437  29.8291813  75.8920536
  59.5701849  33.5827081  73.6304696  59.6906633  34.8085839  73.6841201
  59.8488538  32.8705653  72.5413662  59.7666452  31.8641023  72.5606900
  60.3260758  33.5007492  71.3187835  59.7055317  34.3673844  71.0908195
  61.7763526  33.9631399  71.4653480  62.0632124  34.4673947  70.5425599
  61.8233341  34.6692661  72.2943707  62.7228487  32.8167192  71.7270627
  62.8139071  32.3850235  72.8939428  63.3749114  32.3481544  70.7715214
  60.1845015  32.5130008  70.1706791  60.1033836  31.3003611  70.3777536
  60.1615830  33.0538322  68.9511935  60.3155018  34.0423246  68.8123004
  59.8407164  32.2334665  67.7878146  58.8874691  31.7268926  67.9388169
  59.7345104  33.1125825  66.5431748  60.5437295  33.8415305  66.5867466
  59.8724703  32.4688383  65.6744628  58.4025367  33.8399891  66.4287292
  57.6521911  33.1057371  66.1355461  58.1584558  34.2341113  67.4152353
  58.4074892  35.1923947  65.2342772  59.0265382  34.3636002  63.7744248
  58.3532945  33.5498099  63.5050044  59.0850458  35.0741298  62.9499097
  60.0189415  33.9612353  63.9777459  60.8625589  31.1258057  67.5694307
  60.5036218  30.0371641  67.1065001  62.1343421  31.3720041  67.8886797
  62.4374461  32.2847460  68.1971101  63.1389443  30.3249649  67.7345904
  63.1099614  29.9289971  66.7194703  64.5342695  30.8876307  67.9994353
  64.5042685  31.4804326  68.9136481  65.2275040  30.0564560  68.1285650
  64.9677598  31.7007695  66.9239106  65.8449093  32.0415980  67.1137643
  62.8552129  29.1491129  68.6600272  62.9973855  27.9868524  68.2627192
  62.4636741  29.4297825  69.9041317  62.4290494  30.3796483  70.2456804
  62.1315848  28.3509213  70.8268707  62.9610888  27.6488378  70.9111380
  61.8299810  28.9202345  72.2146959  61.1013777  29.7246264  72.1137451
  61.2717488  27.8432259  73.1320522  62.0000339  27.0386548  73.2338649
  61.0651203  28.2718148  74.1127230  60.3494470  27.4462331  72.7079573
  63.0300406  29.4546829  72.7867543  62.8383587  29.8112064  73.6572423
  60.9498266  27.5373695  70.3154122  60.9682214  26.3028400  70.3666822
  59.9214323  28.2097994  69.7970530  59.8943694  29.2192892  69.8142934
  58.7625574  27.4957176  69.2722881  58.3881971  26.7634474  69.9876440
  57.6404913  28.4917415  68.9227499  58.0563877  29.2898698  68.3078337
  56.5174587  27.7938725  68.1589924  56.1007273  26.9958616  68.7734955
  55.7355151  28.5153595  67.9220929  56.9133205  27.3715153  67.2354086
  57.1132356  29.1399866  70.2063159  56.8162810  28.3290543  70.8713780
  57.9455952  29.6864969  70.6497158  55.9427672  30.0806128  70.0033973
  55.1098033  29.5346743  69.5604274  55.6361971  30.4926579  70.9648196
  56.2391173  30.8921161  69.3387630  59.1624444  26.6439484  68.0740809
  58.6992177  25.5064486  67.9204438  60.0152745  27.1801312  67.2007208
  60.3316907  28.1352783  67.2883233  60.4684407  26.4040343  66.0514628
  59.6113195  26.0481585  65.4798031  61.3345549  27.2729579  65.1423099
  60.7763450  28.1880744  64.9446671  62.2417903  27.5138739  65.6963708
  61.7057569  26.6130028  63.8267422  62.2357119  25.6848359  64.0406457
  60.7901366  26.3900504  63.2789888  62.5900269  27.5185479  62.9868947
  62.0485122  28.4439607  62.7907520  63.4940008  27.7403944  63.5540937
  62.9672330  26.8643435  61.6696300  63.4197026  25.8966580  61.8863248
  62.0568532  26.7172201  61.0885427  63.9237742  27.6952092  60.8901635
  64.7675935  27.8312959  61.4282613  64.1486072  27.2266475  60.0241381
  63.5045367  28.5917753  60.6888970  61.2359914  25.1670898  66.4964532
  61.0384652  24.0743468  65.9507536  62.1174860  25.3176474  67.4866960
  62.3284134  26.2262029  67.8741696  62.8476351  24.1618026  67.9964009
  63.3805930  23.6699603  67.1826773  63.8636882  24.6025935  69.0496722
  63.3499914  25.2076673  69.7967335  64.2790914  23.7142425  69.5254586
  64.9100010  25.3591742  68.4680915  65.5320601  25.6222479  69.1503192
  61.8942865  23.1273719  68.5781755  62.0509636  21.9241745  68.3421367
  60.8956812  23.5775767  69.3414534  60.8084629  24.5577740  69.5688421
  59.9393752  22.6437285  69.9271558  60.4673585  21.8837631  70.5031641
  58.9805519  23.3836826  70.8584537  58.4610604  24.1266812  70.2533248
  58.2638669  22.6486098  71.2246920  59.6501187  24.0699613  72.0386502
  60.3995587  24.7589469  71.6491127  58.8887326  24.6307066  72.5808291
  60.3119691  23.0820256  72.9758968  59.5646320  22.3626545  73.3106972
  61.1007693  22.5601477  72.4341061  60.9082740  23.7896826  74.1802937
  61.6291729  24.5238283  73.8205224  60.1025849  24.3005366  74.7075436
  61.5853111  22.8433767  75.1072775  62.3321933  22.3702172  74.6190287
  61.9659765  23.3542163  75.8910101  60.9173867  22.1632738  75.4410980
  59.1709595  21.8950230  68.8456649  58.9555146  20.6829314  68.9541142
  58.7494196  22.5972385  67.7915945  58.8657063  23.5992656  67.7414110
  58.0413166  21.9271719  66.7044201  57.2058609  21.3540146  67.1064198
  57.4970297  22.9504709  65.7077913  58.2446006  23.7437119  65.7101956
  57.4641153  22.4859307  64.7222869  56.1242787  23.5423566  66.0387413
  56.1362223  23.9126327  67.0638529  55.7932475  24.6831108  65.0927118
  55.7806632  24.3134823  64.0673751  54.8140653  25.0911451  65.3433334
  56.5470599  25.4647136  65.1873920  55.0439951  22.4742587  65.9807034
  55.2695817  21.6890094  66.7022251  54.0784117  22.9199945  66.2195958
  55.0083500  22.0468787  64.9786182  58.9437242  20.9238773  65.9975662
  58.5086509  19.8143531  65.6670937  60.2026473  21.2923693  65.7534956
  60.5314348  22.2255019  65.9566253  61.1260170  20.3558522  65.1208197
  60.7031920  19.9950832  64.1831822  62.4596787  21.0426514  64.8232639
  62.7364658  21.6076885  65.7133320  63.1947169  20.2568172  64.6492421
  62.4213812  21.9754675  63.6225528  61.9844885  21.4288853  62.7868055
  61.7824512  22.8212339  63.8766136  63.7973319  22.4810368  63.2317159
  64.7481666  22.2918848  64.0185074  63.9287856  23.0671850  62.1368482
  61.3488958  19.1255741  65.9901320  61.6384843  18.0423116  65.4698976
  61.2231612  19.2716034  67.3059170  61.0761803  20.1968693  67.6832484
  61.3474110  18.1584707  68.2362152  61.9778257  17.4022294  67.7684808
  62.0229578  18.6280122  69.5280864  61.3991109  19.3790523  70.0127037
  62.1556557  17.7789882  70.1986457  62.9955627  19.0606352  69.2936161
  60.0085258  17.5095287  68.5657952  59.9689488  16.5881537  69.3871402
  58.9164792  17.9634082  67.9502039  58.9934849  18.7669709  67.3431978
  57.5900470  17.3915547  68.1784760  56.8402894  17.9874893  67.6580678
  57.5190461  15.9550666  67.6592286  58.2839951  15.3836844  68.1850370
  56.5340304  15.5666792  67.9180709  57.7347557  15.8298067  66.1593861
  57.2627240  14.9067158  65.8229490  57.2558239  16.6800908  65.6738520
  59.2109100  15.8050677  65.7968210  59.5496611  16.8250956  65.6154654
  59.7738062  15.3779921  66.6267932  59.4644802  15.0093410  64.6020209
  58.6864054  14.4880009  64.2239952  60.6377029  14.9275276  63.9901549
  61.6979081  15.5831566  64.4356194  61.6205900  16.1615047  65.2600194
  62.5792477  15.5020162  63.9490433  60.7516271  14.1705007  62.9026644
  59.9478243  13.6675808  62.5547095  61.6414247  14.1019806  62.4297332
  57.2039400  17.4479480  69.6540878  56.5887341  16.5260228  70.1918059
  57.5690810  18.5450819  70.3174265  58.1263575  19.2552808  69.8644809
  57.2247784  18.7282464  71.7211603  57.3773986  17.7968052  72.2663424
  58.1089594  19.8100137  72.3444327  57.8582310  20.7505192  71.8538372
  57.8453000  19.8700431  73.4003589  59.6026575  19.5497732  72.2087602
  59.8088849  19.3479867  71.1576402  60.1293625  20.4536614  72.5148111
  60.0753347  18.3812396  73.0491361  59.2627739  17.8368218  73.8261033
  61.2616410  18.0080705  72.9352446  55.7595176  19.0941151  71.9194028
  55.2615193  19.0079442  73.0463603  55.0631814  19.5024865  70.8584227
  55.5185744  19.5228610  69.9571450  53.6792645  19.9573289  70.9447373
  53.4682440  20.2901506  71.9610046  53.4220219  21.1189525  69.9875404
  53.7737529  20.8064481  69.0043184  52.3427795  21.2684553  69.9561583
  54.0966309  22.4098096  70.3751712  53.5642615  23.2188688  71.3676862
  52.6449537  22.9062047  71.8628768  54.1752598  24.3982261  71.7310791
  53.7468817  25.0247972  72.5133852  55.3323143  24.7853332  71.0965597
  55.9432920  25.9641471  71.4545024  55.4779445  26.4309852  72.1524377
  55.8827918  23.9972827  70.1084868  56.8022736  24.3031597  69.6093947
  55.2661609  22.8199298  69.7531721  55.6964581  22.1935541  68.9717644
  52.7387409  18.8034860  70.6239011  52.6475604  18.3693526  69.4712353
  52.0398434  18.3083947  71.6472553  52.1478981  18.6738610  72.5825937
  51.1385325  17.1811868  71.4458132  51.6663886  16.3671612  70.9489938
  50.6165010  16.6759300  72.7906019  50.0154491  17.4769475  73.2209585
  49.9797526  15.8159477  72.5830402  51.7045957  16.2748808  73.7739571
  52.2349920  15.4089018  73.3779004  52.4005434  17.1061444  73.8869159
  51.1088478  15.9281162  75.1239570  50.3825468  15.1245001  75.0023550
  51.9026365  15.6011747  75.7956029  50.4373314  17.0792278  75.7190551
  50.9656012  17.9396152  75.7466941  49.2075502  17.0743744  76.2201466
  48.4556564  15.9844222  76.2151517  48.8170089  15.1271535  75.8219410
  47.5242632  16.0153553  76.6045736  48.7161694  18.1974714  76.7377246
  49.2795024  19.0357531  76.7440284  47.7821293  18.2064790  77.1218946
  49.9763791  17.5620162  70.5385137  49.4624504  16.7157196  69.7980716
  49.5520930  18.8243060  70.5830751  49.9602416  19.4618716  71.2516738
  48.4740693  19.3101122  69.7363648  48.5427240  18.8352073  68.7576661
  47.1009289  18.9941029  70.3387439  46.3471723  19.1761845  69.5727175
  47.0924362  17.9390972  70.6125882  46.7928147  19.8335335  71.5581999
  46.3756748  20.9966677  71.3874892  46.9654343  19.3289352  72.6876369
  48.6497501  20.8091950  69.5357858  49.3750449  21.4753760  70.2781554
  47.9704628  21.3338211  68.5130575  47.3368519  20.7616682  67.9733561
  48.1656057  22.7217414  68.1071638  49.2319436  22.8667872  67.9340042
  47.4176797  22.9923251  66.8021427  46.3476018  22.8599642  66.9618739
  47.6122345  24.0141595  66.4764080  47.7590127  22.2961095  66.0360651
  47.7224373  23.7265636  69.1629404  48.1615784  24.8816180  69.1187778
  46.8614752  23.3288674  70.1008706  46.4827126  22.3926878  70.1152176
  46.3941125  24.2793133  71.1036297  45.9793539  25.1615248  70.6160056
  45.3060600  23.6411783  71.9660278  44.6506486  23.0808975  71.2992291
  45.7986534  22.9531225  72.6530730  44.4848137  24.6447624  72.7571299
  43.7631872  24.0991180  73.3651006  45.1491069  25.2147493  73.4066924
  43.7321887  25.6130459  71.8634697  43.3628026  25.2760228  70.7379550
  43.5072741  26.8248112  72.3585379  43.0105097  27.5086553  71.8056512
  43.8340369  27.0568682  73.2856177  47.5459139  24.7719759  71.9703033
  47.6002638  25.9540626  72.3322305  48.4793624  23.8823290  72.3123358
  48.3701358  22.8989274  72.1096286  49.6644687  24.3093731  73.0485487
  49.3699601  24.8074880  73.9722615  50.5293221  23.0985423  73.4006614
  50.8267067  22.6336456  72.4606972  51.4134972  23.4755798  73.9146430
  49.8341187  22.0684827  74.2777103  49.5313233  22.5658163  75.1991630
  48.9490402  21.7173092  73.7472273  50.7268012  20.8856327  74.6109652
  51.5965672  20.5439146  73.7830491  50.5562557  20.2973633  75.6994036
  50.4691283  25.3241376  72.2476536  50.9717210  26.3069663  72.8037061
  50.6060247  25.1027655  70.9387874  50.2415518  24.2632322  70.5116544
  51.3450754  26.0424038  70.0990268  52.3476678  26.1993896  70.4968497
  51.4641843  25.4721093  68.6844688  52.2646061  24.7328623  68.6538411
  50.5266684  25.0044312  68.3837343  51.7870963  26.4980279  67.6382394
  50.7773965  27.1839991  66.9832342  49.7389286  26.9725119  67.2381020
  51.0727296  28.1240303  66.0197984  50.2694316  28.6589513  65.5131697
  52.3849906  28.3870027  65.6976082  52.6215674  29.1300359  64.9360092
  53.4005407  27.7097061  66.3390662  54.4400957  27.9167283  66.0849651
  53.1005232  26.7708423  67.3016695  53.9026400  26.2334219  67.8075231
  50.6710623  27.4104072  70.0826204  51.3353713  28.4494894  70.2064098
  49.3480844  27.4294000  69.9163868  48.8167109  26.5822908  69.7744450
  48.6342983  28.6951242  69.9371164  49.0307119  29.3304779  69.1451056
  47.5777785  28.5011782  69.7520482  48.7788712  29.4128471  71.2638690
  48.9846818  30.6304762  71.3062757  48.6783546  28.6664629  72.3659712
  48.4277900  27.6891965  72.3183587  48.8723961  29.2668286  73.6798338
  48.1712943  30.0921211  73.8041231  48.6090361  28.2333108  74.7743001
  49.3094732  27.4048716  74.6685817  48.7405059  28.6970790  75.7519171
  47.5890185  27.8597648  74.6841515  50.2755558  29.8392654  73.8134036
  50.4580004  30.9227289  74.3732961  51.2796034  29.1268560  73.3004597
  51.1206612  28.2208436  72.8833528  52.6503469  29.6175661  73.3865223
  52.9032430  29.8390159  74.4233939  53.6189669  28.5586407  72.8633070
  53.1728669  28.1159380  71.9727407  54.5518470  29.0538699  72.5938948
  53.8998822  27.4725333  73.8796723  53.2903372  27.5033499  74.9695182
  54.7365203  26.5905675  73.5928847  52.8213293  30.9217163  72.6171568
  53.4446357  31.8665945  73.1134181  52.2817631  30.9931462  71.4003737
  51.8177807  30.2006096  70.9800102  52.4277725  32.2133104  70.6057156
  53.4659898  32.5409685  70.5523848  51.9095504  31.9858617  69.1740696
  50.9269322  31.5165179  69.2217873  51.8033851  33.3074418  68.4342907
  52.7857695  33.7771936  68.3857612  51.4356673  33.1301612  67.4236198
  51.1123908  33.9651207  68.9616303  52.8257975  31.0276529  68.4285409
  52.8565077  30.0721139  68.9520905  52.4479669  30.8754308  67.4175157
  53.8304627  31.4477577  68.3809930  51.7115369  33.3767363  71.2823217
  52.2456551  34.4939377  71.3881741  50.4804648  33.1390006  71.7403996
  50.0093508  32.2585663  71.5887870  49.7509831  34.2056600  72.4111075
  49.7265789  35.0936379  71.7794440  48.3146749  33.7669493  72.6923912
  48.3440037  32.7370292  73.0480648  47.9168366  34.4105538  73.4769917
  47.4217369  33.8536176  71.4649694  47.3510350  34.9015280  71.1734461
  47.8944918  33.2852922  70.6639631  46.0315161  33.3056195  71.7204617
  46.0978070  32.2382005  71.9309874  45.5938858  33.8179187  72.5772748
  45.1629777  33.5009594  70.5657802  45.4629969  34.1764289  69.8774279
  44.0200814  32.8579242  70.3654210  43.5695802  31.9624551  71.2290416
  44.1014356  31.7573286  72.0627999  42.6959193  31.4881647  71.0505339
  43.3127242  33.1194465  69.2710513  43.6499324  33.8010817  68.6063979
  42.4412212  32.6353513  69.1090852  50.4533088  34.6347804  73.6902104
  50.4197135  35.8144436  74.0439054  51.1061365  33.7027689  74.3866934
  51.0268083  32.7227616  74.1556263  51.9134211  34.0775918  75.5420087
  51.3198243  34.6721984  76.2364040  52.4003634  32.8232837  76.2659317
  51.4806856  32.3460718  76.6043999  52.8985961  32.1783911  75.5420687
  53.3243376  33.0550869  77.4625858  54.1790275  33.6503037  77.1411467
  52.5855370  33.7871889  78.5694238  51.7309221  33.1923330  78.8917258
  53.2573239  33.9441079  79.4133311  52.2374091  34.7512670  78.1986668
  53.8860230  31.7352000  77.9670826  54.4533323  31.2531366  77.1709203
  54.5409874  31.9201870  78.8184948  53.0669605  31.0847821  78.2739902
  53.0931220  34.9414808  75.1218793  53.4412362  35.9093632  75.8078932
  53.7267834  34.5986672  73.9993798  53.4672084  33.7702351  73.4832205
  54.8493900  35.3933512  73.5127908  55.6492055  35.4025915  74.2532696
  55.3915823  34.7936861  72.2157012  55.6438849  33.7542597  72.4255476
  54.5837580  34.8305161  71.4848363  56.6102348  35.5073523  71.6588463
  56.3338701  36.5374466  71.4338373  57.3918864  35.4990813  72.4184873
  57.2308900  34.7201633  70.1618133  55.9716624  35.2063259  68.9875072
  55.9317873  36.2938667  68.9261559  56.2112137  34.7961278  68.0064601
  55.0037296  34.8255896  69.3134631  54.4314632  36.8376355  73.2890995
  55.1632960  37.7682104  73.6447287  53.2567194  37.0444287  72.6938687
  52.6892927  36.2855017  72.3443603  52.7995693  38.4157542  72.4636554
  53.6269423  39.0278019  72.1045580  51.6885154  38.4335753  71.4156618
  50.9355273  37.6850558  71.6622922  51.2219990  39.4178627  71.3751533
  52.1621769  38.1244466  70.0227120  53.1428324  38.8941572  69.4253925
  53.5721546  39.7301776  69.9775267  53.5788840  38.6154257  68.1473492
  54.3533933  39.2303503  67.6889783  53.0371116  37.5628894  67.4521609
  53.3813060  37.3398021  66.4422786  52.0598972  36.7904015  68.0310291
  51.6285670  35.9550117  67.4795055  51.6242840  37.0712630  69.3095923
  50.8473952  36.4589864  69.7674800  52.3324398  39.0769136  73.7609349
  52.6038743  40.2656768  73.9989924  51.6235809  38.3299189  74.6072457
  51.4120634  37.3641098  74.4009148  51.0833704  38.9088298  75.8280507
  50.5267517  39.8166667  75.5954415  50.1395423  37.9179325  76.5061798
  49.3952045  37.5893647  75.7808497  50.7178565  37.0591414  76.8469593
  49.4881531  38.5171894  77.6123535  48.9011204  37.8779972  78.0227506
  52.1867461  39.3216751  76.7856151  52.0078679  40.2690721  77.5518126
  53.3245774  38.6254436  76.7725544  53.4253634  37.7858200  76.2203101
  54.4424754  39.0385852  77.6127902  54.1219415  39.1095306  78.6521765
  55.5734367  38.0159645  77.5194554  55.7981725  37.8378376  76.4678548
  56.4550779  38.4223501  78.0150959  55.2195039  36.6967837  78.1680807
  54.2742740  36.6107088  78.9504952  55.9785853  35.6570828  77.8466722
  55.7868181  34.7515632  78.2508497  56.7446771  35.7759592  77.1993141
  54.9333193  40.4212968  77.2077633  55.1619011  41.2898755  78.0571534
  55.0966948  40.6428555  75.9025257  54.9876436  39.9014149  75.2254194
  55.4971604  41.9597338  75.4260585  56.4408409  42.2510545  75.8872511
  55.6809171  41.9383123  73.9104802  56.5375272  41.3222310  73.6370534
  54.7861518  41.5531661  73.4214429  55.9839669  43.5642695  73.1903630
  56.0832432  43.1430236  71.9327484  54.4750704  43.0139688  75.8231590
  54.8406882  44.1040529  76.2745447  53.1854089  42.7079979  75.6600241
  52.8891966  41.8438686  75.2291665  52.1591446  43.6663724  76.0687158
  52.3030539  44.6088190  75.5403373  50.7640902  43.1305957  75.7415579
  50.7355940  42.1112836  76.1266425  50.0520092  43.7461400  76.2912358
  50.3982359  43.1252061  74.2756364  50.8957557  44.0830210  73.4054384
  51.5670941  44.8498744  73.7918838  50.5544079  44.0757313  72.0728205
  50.9512204  44.8340491  71.3978421  49.7052031  43.1054722  71.5940734
  49.3614874  43.0878174  70.2674519  49.7695421  43.7966247  69.7647759
  49.1968334  42.1470375  72.4355679  48.5244536  41.3778698  72.0555852
  49.5414841  42.1622723  73.7655464  49.1394024  41.4075417  74.4414252
  52.2541937  43.9790909  77.5578655  52.1919163  45.1431497  77.9669847
  52.4103528  42.9450337  78.3834648  52.5074262  42.0075324  78.0204672
  52.3813184  43.1266539  79.8296429  51.5120840  43.7159334  80.1216711
  52.2943507  41.7585470  80.5074548  51.3813112  41.2899295  80.1402278
  53.1579224  41.1888748  80.1642092  52.2752329  41.7826245  82.0252637
  53.1794696  42.2718041  82.3874242  51.4012477  42.3389840  82.3639612
  52.2143978  40.3624120  82.5694601  51.2558119  39.9296992  82.2831531
  53.0218007  39.7891723  82.1138329  52.3559385  40.3226488  84.0787136
  53.2910447  40.8119219  84.3512731  51.5201453  40.8665973  84.5187919
  52.3610103  38.9234348  84.5890081  53.1356554  38.4193482  84.1816735
  52.4563883  38.9321296  85.5944570  51.4944269  38.4700190  84.3369240
  53.5976633  43.8985374  80.3210887  53.4794835  44.7478159  81.2111469
  54.7730909  43.6210809  79.7588104  54.8591175  42.9410603  79.0170081
  55.9855785  44.2668681  80.2488979  56.0173999  44.2203962  81.3374414
  57.2215497  43.5606903  79.6937214  57.1430935  42.5122984  79.9815032
  57.1987944  43.6412881  78.6069435  58.5223007  44.1298036  80.2138703
  59.0649006  43.6944579  81.4149987  58.5370592  42.9290194  81.9838457
  60.2515283  44.2135272  81.8921305  60.6701031  43.8572116  82.8333723
  60.9058106  45.1885838  81.1730093  62.0862135  45.7104513  81.6458491
  62.3593257  45.3239047  82.4810682  60.3853935  45.6424539  79.9811423
  60.9041351  46.4129122  79.4107025  59.1995919  45.1156249  79.5101020
  58.7796032  45.4734173  78.5700519  56.0162672  45.7412055  79.8757445
  56.1221738  46.6140247  80.7438916  55.9282247  46.0381694  78.5870603
  55.7146255  45.3303736  77.8989470  56.1686233  47.3905562  78.1289432
  56.9798741  47.8427989  78.6994235  56.5600378  47.3712168  76.6586076
  55.8375260  46.7665900  76.1104267  56.5426278  48.3920815  76.2769898
  57.9355110  46.7973664  76.4361210  58.0792222  45.6547981  76.0049183
  58.9606472  47.5871442  76.7288986  59.9048592  47.2530574  76.5987085
  58.7920835  48.5188012  77.0806120  54.9366314  48.2668499  78.3165129
  53.8123894  47.7679959  78.4079376  55.1217769  49.5811895  78.3801807
  56.3697379  50.2946318  78.6958709  56.9406896  50.4538988  77.7811313
  56.9615600  49.7034088  79.3946563  55.8863950  51.5679338  79.2971558
  56.6142046  52.3577012  79.1109851  55.7592143  51.4377317  80.3718529
  54.5878672  51.8622630  78.6419253  54.8054588  52.4225935  77.7326494
  53.8874010  52.4269483  79.2572116  53.9850466  50.4950770  78.2814483
  53.2120177  50.1750806  78.9801091  53.4227031  50.4974310  76.8725618
  54.0875503  50.0481267  75.9273450  52.1976557  50.9912132  76.6865105
  51.3081597  51.6292716  77.6710060  51.8566218  52.4032438  78.2079013
  50.9523192  50.8799590  78.3781179  50.1987704  52.1900562  76.8224437
  50.4316819  53.2203097  76.5533175  49.2637401  52.1637586  77.3820223
  50.1223552  51.3189894  75.6202589  49.7404737  51.8896619  74.7737375
  49.5058780  50.4322529  75.7677511  51.5769290  50.9075282  75.3581641
  51.6468060  49.8743893  75.0178123  52.2480066  51.8189166  74.3471709
  52.1886563  51.5484212  73.1415575  52.8842696  52.8960581  74.8118487
  52.8742527  53.1062534  75.7996832  53.5472850  53.8348024  73.9109993
  52.8614702  54.1485819  73.1240433  53.9942288  55.0707388  74.6906445
  54.1735203  54.7753467  75.7244226  54.9251730  55.4247614  74.2478004
  52.9630119  56.1819129  74.6544094  52.5350686  56.5593730  73.5437527
  52.5766638  56.6736493  75.7352537  54.7333769  53.2039830  73.1872191
  54.9601363  53.4997941  72.0090133  55.5112916  52.3540155  73.8594527
  55.2877229  52.0575360  74.7987164  56.7383614  51.8519001  73.2489204
  57.4362626  52.6767267  73.1050653  57.4045752  50.7964192  74.1341708
  56.6719673  50.0484041  74.4372521  58.2139661  50.3113257  73.5885786
  58.0034366  51.3431834  75.3916619  59.0650033  50.7362777  76.0290469
  59.3840414  51.4311631  77.1060469  60.2055436  51.1132051  77.7480249
  58.5665764  52.4650261  77.1928530  58.5727275  53.1689748  77.9170894
  57.6947623  52.4341701  76.1310083  56.9384710  53.2117802  76.0240168
  56.4193012  51.2522381  71.8875728  55.4319212  50.5303159  71.7273323
  57.2635997  51.5528957  70.8977309  58.1000737  52.0969801  71.0538805
  56.9529787  51.1383055  69.5345967  55.9518384  51.4659013  69.2544213
  57.9584214  51.7732279  68.5799907  58.7387700  52.2385954  69.1821438
  58.3924754  50.9754600  67.9772772  57.3403349  52.8057335  67.6751978
  58.0664231  53.0709769  66.9067301  56.4601734  52.3657566  67.2063320
  56.9353808  54.0533209  68.4407629  55.8205522  54.0715239  69.0024210
  57.7320644  55.0140708  68.4834226  56.9617585  49.6232354  69.3931454
  56.3653763  49.0769296  68.4394431  57.5681410  48.9220148  70.3526578
  58.0087295  49.3486843  71.1551129  57.6622888  47.4834398  70.2008713
  58.0963915  47.1995081  69.2422072  58.5005417  46.8526918  71.3262353
  59.4964180  47.2955605  71.3122061  57.8596149  47.0939295  72.6786990
  56.8638168  46.6509130  72.6936514  58.4711137  46.6383876  73.4575772
  57.7824202  48.1661907  72.8586947  58.6908593  45.3696550  71.0658601
  59.2058506  45.2302672  70.1153565  59.2854511  44.9327461  71.8681511
  57.7181532  44.8793303  71.0268039  56.2497986  46.9533387  70.1671495
  55.9463131  45.9818165  69.4699536  55.3786666  47.5452879  70.9884711
  55.6552160  48.3122273  71.5846455  54.0177345  47.0490742  71.0917217
  53.9878706  45.9871584  71.3357346  53.2387589  47.8223429  72.1676360
  53.5717932  48.8602179  72.1693063  51.7491034  47.7700977  71.8856539
  51.4152220  46.7324936  71.8842822  51.2131193  48.3226856  72.6573197
  51.5470992  48.2175208  70.9124589  53.5467371  47.2618193  73.5428624
  54.6145540  47.3525169  73.7419681  52.9887070  47.8182636  74.2959040
  53.2586056  46.2112638  73.5804690  53.3652465  47.1630183  69.7267286
  52.5816583  46.3021671  69.3252628  53.5719130  48.3016380  69.0553798
  54.1039895  49.0572439  69.4628767  52.9903407  48.5002238  67.7319531
  51.9022604  48.5100330  67.7958616  53.4567668  49.8288669  67.1362685
  54.5439152  49.8306059  67.0574943  53.0209919  49.9562709  66.1453251
  53.1383862  50.6482712  67.7807137  53.3781017  47.3404548  66.8307293
  52.5383377  46.7588310  66.1231142  54.6436919  46.9245241  66.9290512
  55.3069336  47.3615554  67.5529208  55.1101170  45.8350743  66.0753793
  54.8050723  46.0125645  65.0440965  56.6356056  45.7455566  66.1251282
  56.9042503  45.4896447  67.1500372  56.9266764  44.9325649  65.4599799
  57.3585393  47.0193427  65.7148528  57.4334409  47.0387078  64.6276014
  56.7719248  47.8733819  66.0533827  59.0113298  47.1177622  66.4240772
  59.9143482  46.0157169  65.3423074  59.8582602  46.3844815  64.3181171
  60.9574317  45.9722187  65.6556531  59.4783542  45.0180032  65.3930793
  54.4874224  44.5137451  66.5035925  54.1163351  43.6864312  65.6610867
  54.3837265  44.2941324  67.8120796  54.7691248  44.9474146  68.4790052
  53.7604638  43.0785368  68.3172737  54.2746437  42.2094990  67.9067965
  53.8672163  43.0344573  69.8408503  53.3491343  43.8936257  70.2669027
  53.4118110  42.1159601  70.2110790  54.9169660  43.0622968  70.1329972
  52.3045535  42.9924366  67.8820300  51.8281994  41.9195295  67.5036609
  51.5788665  44.1106442  67.9382451  51.9610997  44.9621550  68.3241552
  50.1895989  44.1150745  67.4951910  49.6267070  43.3527231  68.0337746
  49.5490911  45.4772339  67.7649196  50.2461116  46.2389976  67.4156666
  48.6324289  45.5274231  67.1772876  49.2259682  45.7201942  69.2270133
  48.3605851  45.1105970  69.4870212  50.0842808  45.4031159  69.8193501
  48.9225770  47.1784153  69.5170791  49.7628672  47.7931499  69.1944142
  48.0257576  47.4756736  68.9735242  48.7009490  47.4004434  70.9408764
  48.5007219  46.5861240  71.5038082  48.7410515  48.5861630  71.5345983
  48.9745138  49.6942551  70.8522471  49.1271332  49.6468769  69.8549695
  48.9991660  50.5830153  71.3314102  48.5455021  48.6593553  72.8480017
  48.3695626  47.8171447  73.3769881  48.5738268  49.5568154  73.3104538
  50.1083136  43.7657338  66.0213831  49.2329590  43.0003643  65.6023055
  51.0563951  44.2639418  65.2290604  51.7806290  44.8761936  65.5765260
  51.0166360  43.9822272  63.7989936  50.0360679  44.2285523  63.3916737
  52.0695583  44.8296001  63.0841196  51.7806776  45.8684895  63.2433553
  53.0128143  44.6331056  63.5937843  52.2348525  44.5736487  61.6006171
  53.2127888  44.9557347  61.3077831  52.2061765  43.4948113  61.4476800
  51.1641987  45.2306584  60.7579104  50.1845760  44.9008477  61.1038343
  51.2406436  46.3128848  60.8629899  51.3398260  44.8499518  59.2959807
  52.0382029  45.5571866  58.8485555  51.7664012  43.8474957  59.2611301
  50.0619910  44.8704678  58.5391671  49.6667680  45.7993848  58.5709744
  50.2354494  44.6110857  57.5785771  49.4148672  44.2148838  58.9533405
  51.2281362  42.4867764  63.5773894  50.4550514  41.8216611  62.8651855
  52.2785998  41.9407504  64.1920501  52.8683911  42.4850647  64.8052120
  52.6305646  40.5489478  63.9524244  52.7071613  40.3657651  62.8806612
  53.9730810  40.2205247  64.6006124  54.6296232  41.0168979  64.2501250
  53.8761875  40.2808949  65.6846175  54.5674252  38.8642330  64.2168992
  53.8812236  38.0814186  64.5400554  54.7849348  38.7589860  62.7181739
  55.4714404  39.5412458  62.3943244  55.2081439  37.7832500  62.4795651
  53.8316162  38.8767869  62.2029972  55.8667306  38.6171045  64.9723719
  55.6716041  38.6268153  66.0447201  56.2750122  37.6476861  64.6866531
  56.5847057  39.3997113  64.7271425  51.5472778  39.6251975  64.4884283
  51.2528592  38.5932195  63.8812595  50.9395480  39.9779104  65.6254385
  51.2382597  40.7893386  66.1474105  49.8611699  39.1644755  66.1707919
  50.1676425  38.1188262  66.1989238  49.5140309  39.6099703  67.5907665
  50.4387196  39.6141886  68.1678560  49.1205169  40.6245557  67.5286107
  48.4935118  38.7113338  68.2748499  47.5729017  38.7187251  67.6913063
  48.8936342  37.6979860  68.3084723  48.1743257  39.1527483  69.6879696
  48.6405548  40.1952616  70.1455517  47.3714684  38.3601855  70.3867072
  47.1248508  38.6055338  71.3349083  47.0107209  37.5152627  69.9671024
  48.6254899  39.2306712  65.2912863  47.8973310  38.2413528  65.1809421
  48.3620530  40.3793504  64.6654851  48.8828344  41.2230183  64.8581258
  47.2605115  40.4495274  63.7142509  46.3303662  40.1530320  64.1990389
  47.1057742  41.8775638  63.1928428  48.0657973  42.1933450  62.7845084
  46.3606397  41.8620356  62.3974602  46.6719478  42.8493467  64.2722443
  46.2978083  42.3905253  65.3713000  46.7083019  44.0727557  64.0222486
  47.4971191  39.4794130  62.5673590  46.5952727  38.7304129  62.1689510
  48.7213314  39.4645525  62.0363284  49.4296186  40.1309708  62.3089365
  49.0375186  38.5129323  60.9696740  48.3315008  38.5762132  60.1416441
  50.4559425  38.7673990  60.4273859  51.1662379  38.7178185  61.2526867
  50.8198022  37.7220406  59.3814556  50.1101732  37.7713276  58.5555631
  51.8253065  37.9157332  59.0078988  50.7847296  36.7297752  59.8312120
  50.5602129  40.1668431  59.8450967  50.3410978  40.9008468  60.6205509
  51.5694157  40.3291872  59.4666081  49.8450335  40.2759142  59.0297913
  48.8815958  37.0799648  61.4712835  48.3079845  36.2176544  60.7871579
  49.3881521  36.8039079  62.6733644  49.8377259  37.5212901  63.2241325
  49.3541197  35.4461888  63.2024217  49.8222058  34.7613067  62.4953636
  50.1109729  35.3727320  64.5270206  51.1821339  35.4526546  64.3417481
  49.7977877  36.1739027  65.1964537  49.8985372  34.0862566  65.2685434
  50.5305188  32.9245392  64.8618027  51.1914465  32.9537322  63.9955336
  50.3322635  31.7381674  65.5389813  50.8386403  30.8303066  65.2111521
  49.4933751  31.7027486  66.6300614  49.3344398  30.7676043  67.1670387
  48.8544538  32.8512575  67.0429157  48.1899667  32.8252083  67.9065583
  49.0557737  34.0343520  66.3631166  48.5476361  34.9425078  66.6873837
  47.9246240  34.9660117  63.3920369  47.6152692  33.8052526  63.1135341
  47.0439074  35.8340322  63.8904672  47.3312361  36.7469214  64.2132285
  45.6434130  35.4571602  64.0401328  45.5691714  34.5033147  64.5624029
  44.8943768  36.5159117  64.8482127  45.1116013  37.4817109  64.3919841
  43.8302376  36.3003608  64.7520587  45.2719348  36.5547438  66.3191958
  46.3581415  36.6203906  66.3820143  44.8283901  37.4472867  66.7604831
  44.7960021  35.3294866  67.0724937  44.0843240  34.4991164  66.4701080
  45.1286759  35.1977234  68.2685538  44.9828656  35.2555834  62.6840590
  44.2418392  34.2859097  62.4886883  45.2378192  36.1590682  61.7332268
  45.7808952  36.9893495  61.9224374  44.6818804  35.9863108  60.3959012
  43.5930863  36.0137402  60.4391950  45.1628110  37.1090640  59.4755615
  46.2347574  37.2204400  59.6387347  44.9837364  36.7827726  58.4510781
  44.4747280  38.4414312  59.7093592  43.4245718  38.3356349  59.4371828
  44.5521731  38.6842432  60.7691454  45.2066188  39.7745028  58.7408625
  44.4489069  41.2038765  59.5072544  44.7162260  41.2349314  60.5635097
  44.8031185  42.1104315  59.0165480  43.3653526  41.1378378  59.4090187
  45.0619100  34.6312972  59.8145300  44.2739469  34.0148598  59.0885388
  46.2668239  34.1496445  60.1236647  46.9322910  34.6833182  60.6644466
  46.6768168  32.8419682  59.6154398  46.2961400  32.7002338  58.6039578
  48.2027430  32.7426773  59.5817603  48.5534450  32.8723417  60.6056228
  48.4494595  31.7380800  59.2382268  48.8765410  33.7640664  58.6832724
  48.6240302  34.7609642  59.0445671  49.9550717  33.6185319  58.7440448
  48.4267654  33.6201501  57.2382686  48.4449105  32.5653016  56.9642897
  47.4103772  34.0022674  57.1431851  49.2906340  34.3562492  56.3212663
  50.1130130  33.8747268  55.9867095  49.0682908  35.5947587  55.9024936
  48.0125883  36.2850898  56.3051773  47.3544514  35.8669187  56.9471187
  47.8703207  37.2266489  55.9685378  49.9290239  36.1588943  55.0598937
  50.7389697  35.6418830  54.7487875  49.7687300  37.1016948  54.7350371
  46.0931850  31.6939667  60.4392393  45.5859916  30.7165739  59.8782588
  46.1532262  31.7933021  61.7685168  46.4907262  32.6406390  62.2023523
  45.7887852  30.6738557  62.6290046  46.2021800  29.7474391  62.2303115
  46.3436116  30.8903279  64.0362859  47.4243845  31.0243793  63.9909042
  45.8880911  31.7680192  64.4948259  46.0924219  29.7407929  64.9668653
  46.6563264  28.5011338  64.7233778  47.2886085  28.3675654  63.8456087
  46.4265070  27.4403001  65.5764112  46.8798726  26.4699336  65.3740521
  45.6233548  27.6083849  66.6844970  45.4391020  26.7728706  67.3598240
  45.0523937  28.8383185  66.9372374  44.4172764  28.9751462  67.8124542
  45.2856910  29.8969340  66.0807425  44.8324634  30.8682639  66.2787393
  44.2863913  30.4551464  62.7089775  43.8546877  29.3423652  63.0276044
  43.4785366  31.4804448  62.4342268  43.8394728  32.4081451  62.2633567
  42.0340816  31.2900397  62.4320781  41.7265235  30.9406371  63.4176870
  41.3268702  32.6128402  62.1403127  41.6177853  32.9708685  61.1527480
  40.2476707  32.4623561  62.1682974  41.6099793  33.3502001  62.8914777
  41.6108685  30.2384616  61.4194740  40.5178658  29.6748396  61.5421909
  42.4534676  29.9606640  60.4256600  43.3096820  30.4925754  60.3618913
  42.1765671  28.9741147  59.3944590  41.1009321  28.8383061  59.2819222
  42.7509663  29.4504760  58.0604258  43.8373923  29.4178244  58.1423506
  42.4236070  28.7476357  57.2942983  42.3140818  30.8550663  57.6787504
  41.2256630  30.8734526  57.6230080  42.6492563  31.5424515  58.4554497
  42.8958028  31.2791417  56.3431136  43.9831907  31.2493485  56.4123879
  42.5615108  30.5766989  55.5796199  42.4508640  32.6825792  55.9691063
  42.5921779  33.3270046  56.8367739  43.0803287  33.0324954  55.1509180
  41.0225754  32.7228950  55.5484931  40.4390964  32.3990998  56.3066545
  40.7686748  33.6707674  55.3093855  40.8915027  32.1261534  54.7442429
  42.7290432  27.5934709  59.7382642  42.8978102  26.7623496  58.8388649
  43.0169607  27.3342033  61.0097727  42.9176079  28.0400009  61.7253690
  43.5153143  26.0248214  61.3976858  44.4055422  25.7819327  60.8175146
  43.8807495  26.0088686  62.8840847  44.6379317  26.7781914  63.0354673
  42.9796684  26.2727401  63.4377315  44.4102440  24.6698763  63.3843700
  43.6710509  23.9072624  63.1391878  45.3384025  24.4596495  62.8529299
  44.7243158  24.6418668  65.1596796  43.0540829  24.6409911  65.8024061
  42.5254009  23.7591826  65.4404555  43.0834773  24.6246520  66.8918874
  42.5346430  25.5386069  65.4668928  42.4534536  24.9647682  61.1103427
  41.2637762  25.1962882  61.3592828  42.8397318  23.7882962  60.5904111
  44.2022931  23.3561701  60.2309118  44.8792369  23.5667931  61.0588522
  44.5324676  23.8989675  59.3452172  44.0447327  21.8872120  59.9754051
  44.2497885  21.3337894  60.8917972  44.7434347  21.5752726  59.1991250
  42.6405876  21.6992171  59.5312255  42.3037395  20.7004255  59.8088001
  42.5053735  21.8428471  58.4592240  41.8407579  22.7520383  60.3044939
  41.0526351  23.2042245  59.7024238  41.2332575  22.1540989  61.5702256
  41.9737170  21.8474955  62.5040153  39.9596127  21.9727851  61.6599150
  39.3164038  22.2635526  60.9375329  39.4108049  21.3983927  62.8854632
  40.1860813  20.8396321  63.4097077  38.8835741  22.5181505  63.8258823
  39.7421660  23.1706831  63.9843763  38.1036586  23.0666033  63.2976482
  38.3451345  22.0429349  65.1826001  38.9124972  21.0951684  65.7637336
  37.3238159  22.5925616  65.6461525  38.3236789  20.3973817  62.5756326
  37.9821575  20.1377599  61.4114708  38.4505177  20.4297482  64.3480175
  53.2548760  54.3630947  67.2381722  53.3173950  54.3435915  65.8092814
  55.0155942  54.3636817  65.3412252  55.8441712  55.3704455  65.8070534
  57.1930766  55.3351309  65.4970324  55.5255475  53.3314556  64.5703044
  56.8774007  53.3140073  64.2711512  57.7271039  54.3093495  64.7294145
  59.2133971  54.2265778  64.4806668  59.8733252  53.3410886  65.4306420
  60.3861452  52.1621969  65.0697334  60.9884223  51.3225328  66.1537027
  61.1158211  51.7970468  67.4546778  61.5999579  50.9795425  68.4609244
  61.3622015  50.0085492  65.8884383  61.8456159  49.1937386  66.8977218
  61.9724630  49.6602552  68.2050006  62.4067670  48.7610972  69.3050788
  62.7190609  47.4225322  69.0654331  63.0525765  46.5671100  70.1020851
  63.0842754  47.0233619  71.4162523  63.3798082  46.1178443  72.5459298
  63.1382116  46.5737841  73.7206174  62.9344876  45.6055526  74.8088992
  62.5946235  46.3479458  76.1045700  62.5610773  47.8392214  75.9316164
  63.7884343  48.3369137  75.8156974  63.8788010  49.7699541  75.6422089
  61.5642468  48.5099182  75.8938462  61.8292340  44.6360410  74.4026053
  60.6395575  44.4756142  74.9379538  60.0140978  43.4345056  74.2588234
  60.8367443  42.9965936  73.3377436  60.5654188  41.8873639  72.3890256
  62.0082708  43.7253703  73.3819277  63.1864405  43.6937361  72.6276131
  63.8634080  44.8052128  72.2459870  65.0740531  44.4604793  71.5449661
  66.0596431  45.4574181  71.0126774  65.2444026  43.1155179  71.4319967
  66.3641859  42.3581906  70.7862160  63.9539871  42.2323219  72.1669379
  62.7779849  48.3577999  71.6619745  62.4463481  49.2094372  70.6238580
  60.3709669  51.7700048  63.9061764  52.6654156  55.7608594  65.3223896
  51.9491790  56.0467188  64.1223277  51.4926378  55.0383652  63.2761774
  50.8274588  55.3523262  62.1044955  50.5863824  56.6666754  61.7196993
  49.8906047  56.9543289  60.4142466  51.0309749  57.6942634  62.5663625
  51.7057223  57.3766583  63.7583708  52.0199049  58.5518182  64.3950416
  51.5662299  59.6104972  63.6444427  50.9521466  59.1316286  62.5101444
  50.3643457  59.9464871  61.4829036  49.8837861  60.5503283  60.6373906
  52.6746346  53.2851441  65.0926804  55.4942613  56.1053722  66.3512361
  57.7714170  56.0505266  65.8308443  54.9446979  52.6179844  64.2364936
  57.2338657  52.5829508  63.7267413  59.3846882  53.8934144  63.5758312
  59.6234754  55.1140193  64.5322836  59.9261660  53.6111038  66.2686328
  60.8683555  52.7161248  67.6830576  61.6784296  51.3426906  69.3669617
  61.2863728  49.6498871  64.9810263  62.0997698  48.2750635  66.6755148
  62.7055636  47.0713575  68.1517176  63.2632994  45.6344096  69.8931837
  63.7645302  45.1013374  74.9303334  63.2354603  46.1615117  76.8185059
  61.7287304  46.0683408  76.4647077  64.8132705  50.0607989  75.6782933
  63.4587295  50.0442475  74.8014330  63.3929471  50.1939875  76.3784478
  61.0949518  42.0113510  71.5748659  60.8255055  41.0249164  72.7719973
  59.6249260  41.8667882  72.1219882  66.8388777  45.0119618  70.6207550
  65.6690171  46.0085236  70.3054717  66.3614760  46.0542190  71.7270558
  66.2750148  41.3974741  70.9546271  66.3832462  42.4823285  69.8152647
  67.2209372  42.6581913  71.1523141  62.7962792  48.7037966  72.5774726
  62.2383764  50.1420853  70.8364238  52.3305287  56.1842958  66.0203190
  51.6280887  54.0935359  63.4882071  50.5211647  54.6171250  61.5358548
  49.2363707  57.6751709  60.5033859  50.5421843  57.2352815  59.7388329
  49.4263678  56.1512692  60.1010355  52.2916255  58.5891620  65.2342998
  51.7103943  60.5272828  63.9578031  54.7726415  38.2925876  44.3430998
  63.4922038  45.4813651  42.3361152  47.1143511  37.4949247  48.5888835
  76.1442541  87.5144173  52.2463070  89.0359318  38.6259767  65.3739075
  91.3349868 102.0526403  56.6674512  70.6270152  31.1939308  57.7826438
  60.5278220  34.0671479  39.7010280  67.6192955  54.9316699 131.4780640
  66.9454654  55.2348395 132.0865597  68.0058777  55.7345779 131.1286097
  71.5849696  52.5102182 132.7520463  72.2800601  53.1308875 132.9707777
  71.9272846  51.6597533 133.0272841  68.8961824  52.9001084 132.7904139
  69.8292498  52.8346646 132.9937014  68.8085037  53.7357351 132.3318671
  71.5249841  52.2166954 129.7508086  71.4463473  51.8826818 130.6443844
  72.3459508  52.7088722 129.7499559  69.0953793  49.5334950 129.3718064
  69.7989643  49.7384952 129.9875720  68.3716442  50.1011711 129.6367148
  72.3392726  56.2702254 129.1349384  71.4622192  56.1491054 128.7711631
  72.8150479  55.4788332 128.8828273  75.0848035  57.2066641 128.9366494
  74.1779490  56.9099753 129.0129208  75.3624016  56.9096459 128.0700780
  73.8546819  54.0653576 129.0778473  74.7165983  54.3908474 129.3374291
  74.0397164  53.2785072 128.5651539  74.8076262  51.3049619 132.3658182
  74.7954932  52.2491459 132.5226453  75.6999684  51.1219764 132.0717643
  67.6192957  31.9378821 118.2025946  66.9454655  32.2410518 118.8110904
  68.0058779  32.7407901 117.8531403  71.5849697  29.5164305 119.4765769
  72.2800602  30.1370997 119.6953084  71.9272848  28.6659656 119.7518147
  68.8961826  29.9063206 119.5149445  69.8292499  29.8408768 119.7182321
  68.8085039  30.7419473 119.0563978  71.5249842  29.2229077 116.4753393
  71.4463474  28.8888940 117.3689151  72.3459509  29.7150845 116.4744865
  69.0953794  26.5397072 116.0963371  69.7989644  26.7447075 116.7121027
  68.3716443  27.1073834 116.3612455  79.6324767  37.4949253 128.2417008
  80.2703177  37.3756000 127.5380348  79.5145610  38.4430096 128.3004960
  72.3001289  39.3012157 124.1675424  71.7366154  39.2102094 123.3991711
  72.1853684  38.4812061 124.6477916  77.8800847  42.9683125 119.4789888
  77.2288827  43.5537205 119.0923902  78.6745210  43.4989320 119.5384926
  71.8056474  40.0572262 119.8777023  72.5787350  39.5101249 119.7389899
  72.1581873  40.9216511 120.0891484  74.1422752  36.2164928 117.5095473
  74.3948273  35.6946449 116.7478936  73.2047311  36.0531073 117.6122156
  79.1866035  35.2200706 125.3170216  79.9729124  34.8020130 124.9660633
  79.4504739  36.1246799 125.4851864  79.3576112  40.6573557 120.0158873
  78.7221945  40.7308183 120.7279777  79.0273519  41.2467156 119.3377952
  73.8619041  38.1193034 119.7119848  73.7455299  37.4437937 120.3800932
  73.9721301  37.6325408 118.8952001  76.2050582  37.5803181 123.4166537
  75.8408789  37.0533802 124.1279458  77.0617698  37.1901650 123.2433022
  75.8456069  32.6093081 118.4127885  76.0130471  33.4773317 118.7798357
  75.6553238  32.7720362 117.4889175  75.8245290  35.0650738 119.3974552
  75.7044915  35.5107789 120.2360033  75.1297878  35.4136056 118.8388090
  73.5852182  47.8354380 123.0464684  73.5076212  48.7862205 123.1253164
  72.9813826  47.4900253 123.7039610  81.5230356  35.5372211 120.2254886
  82.4348212  35.7699598 120.0502584  81.0140003  36.1209256 119.6629965
  80.1299938  40.5198030 127.6168468  79.5008801  40.6843744 126.9144536
  79.7425600  40.9339639 128.3879432  84.0089170  41.4552468 124.9712832
  83.3240208  41.8351369 124.4209865  84.0933019  42.0647794 125.7044779
  75.6827900  40.2572438 124.8818553  76.1466246  40.5360141 124.0923175
  75.4184698  39.3555883 124.6991644  74.6196786  36.3795590 121.6908118
  75.3220830  36.8316634 122.1582044  74.2877415  35.7379409 122.3188011
  75.8590551  43.1936533 121.7670223  75.7236226  44.0388069 122.1955071
  76.4000363  43.3955811 121.0036157  69.3119948  40.7111971 122.3398148
  69.8244469  41.5055221 122.4903713  69.9642661  40.0138261 122.2731750
  71.1214833  43.8277727 124.4220902  71.2981461  44.7495692 124.2341885
  71.9171666  43.5136146 124.8515281  67.2768865  39.0400625 123.1157719
  68.1144087  39.4497634 122.8991427  67.4547133  38.1000067 123.0857913
  79.1733297  36.7075706 118.8041552  78.6579921  37.4780311 119.0429939
  78.9010606  36.0340842 119.4274613  84.1467571  39.4608061 120.7394725
  83.3697014  39.1219220 120.2949887  84.8259052  39.4660684 120.0649690
  78.9619600  34.5802798 120.6301333  78.6569736  34.8948947 121.4811476
  79.9150042  34.6584218 120.6728666  77.4066032  40.7393021 122.2794287
  76.8787394  40.0045781 121.9667524  76.9053535  41.5167698 122.0334255
  82.3858878  38.9342042 127.3961333  81.7282553  39.6241303 127.4841462
  83.1899277  39.3238474 127.7395320  81.1964337  37.2886415 125.4465275
  81.7096219  37.9216406 125.9486985  81.8465561  36.6887610 125.0808635
  72.4654347  33.4317149 118.6596784  71.6291659  33.7691835 118.9806059
  72.3259117  33.2966128 117.7223921  75.5518632  38.5573232 115.2829260
  74.6445694  38.3262485 115.4820409  76.0489664  37.7610851 115.4703242
  78.4586711  47.2670739 118.2025946  77.7848410  47.5702436 118.8110904
  78.8452533  48.0699819 117.8531403  78.4580216  36.1627286 122.8226296
  79.2052035  36.6748683 122.5133418  78.7271805  35.8411339 123.6830689
  76.7306866  38.6585827 119.8053250  75.8218085  38.3744859 119.9025720
  76.7601950  39.0784905 118.9456557  81.9626133  42.2692416 123.5744418
  81.5088460  41.4283326 123.6309608  81.3320100  42.9053814 123.9119198
  80.9059053  33.1984402 124.8045085  80.1681810  32.6861788 125.1355328
  81.1585826  32.7584784 123.9928362  80.4059072  44.1068913 124.5094236
  80.6982047  44.6673970 123.7906601  80.9157693  44.3997474 125.2647395
  76.4282954  40.1994570 117.1441329  75.9902383  39.4830429 116.6846966
  77.1693394  40.4270685 116.5826420  73.2184120  34.8891507 123.6653424
  72.4051985  35.1885677 124.0718616  73.7143114  34.4947196 124.3827907
  75.3692698  44.8849264 125.5987689  75.3268876  45.1110110 124.6696221
  76.2855396  44.6512638 125.7473490  84.5456068  38.4751767 123.2017647
  84.4073967  38.6653363 122.2738836  84.1892287  39.2371150 123.6585698
  73.4858498  41.7612293 125.3949652  74.2799097  41.2662613 125.1932227
  72.7750191  41.2330156 125.0317357  78.3053343  44.1430388 129.7462019
  78.3590365  44.7121325 130.5139735  77.4368124  44.3132273 129.3816056
  69.7941262  35.9055375 121.4709404  68.8638850  35.8439830 121.6879367
  69.8898734  35.3831327 120.6746046  76.6577926  47.4350411 120.4173025
  76.8329682  46.9638454 121.2318648  75.9710714  48.0616177 120.6454286
  77.6134990  41.7122917 126.4636327  77.2784822  41.6723687 127.3593977
  77.1138935  41.0467633 125.9906737  80.5494181  39.0578952 116.7373386
  79.9323352  38.3325780 116.6406439  80.0810670  39.8188312 116.3940461
  71.2239012  50.5839774 127.1912886  71.4635610  51.2158298 127.8691904
  70.3808208  50.2327814 127.4778245  72.3392727  33.2764376 115.8594691
  71.4622193  33.1553177 115.4956937  72.8150480  32.4850454 115.6073579
  75.7366874  46.3918896 129.5954390  75.6637045  47.1973868 130.1073694
  75.2944267  46.5910862 128.7702411  75.5256653  45.6290666 123.1057211
  74.7424175  46.1712347 123.1995436  76.2249398  46.1464646 123.5051452
  78.1965557  46.2905730 131.7512548  78.9093529  46.9253195 131.6788450
  77.7055586  46.3869596 130.9352550  79.9183084  40.1956983 123.3229840
  78.9839363  40.3158446 123.1534544  80.0959752  39.2929450 123.0589850
  83.3055635  36.0374302 123.8579874  83.7716087  36.8702294 123.7840177
  83.7563136  35.5719284 124.5625132  81.3731866  42.3818124 120.8566026
  81.6491710  42.2674718 121.7659900  80.5036365  41.9835609 120.8178199
  78.0085930  46.6304475 124.4998840  78.1908325  45.8126131 124.9626592
  78.8318916  46.8472167 124.0623730  78.3428096  45.5572660 121.7613888
  78.8715862  45.0465114 121.1484050  78.6056315  45.2415190 122.6259421
  71.6983844  46.6087776 124.5211664  71.0294219  47.0933904 124.0375704
  71.5596714  46.8556997 125.4355043  75.8389112  48.6431520 131.1194322
  76.3907420  48.8063141 131.8843408  76.1795306  49.2335958 130.4474347
  67.0671421  34.8706231 121.3007596  67.3624862  33.9616910 121.2474650
  66.1659457  34.8493971 120.9788599  78.9757500  46.5913495 128.1058005
  78.8508639  45.7903235 127.5968950  79.6336591  47.0859689 127.6171975
  81.0392408  44.3922516 129.7337555  80.0922744  44.2727867 129.6615881
  81.3875181  43.5045014 129.8163816  78.0438841  44.1875232 125.9341907
  77.8963804  43.2591939 126.1149477  78.8692335  44.2095322 125.4498982
  71.9101086  32.8393299 121.7922399  72.2497158  33.3679220 121.0701007
  72.3573206  33.1773705 122.5680966  81.6472963  45.0103790 127.0206780
  82.5719511  44.8046652 126.8831231  81.4788267  44.7620192 127.9296121
  73.8969233  31.3367920 119.9915692  74.6177595  31.7149173 119.4879409
  73.2734537  32.0556797 120.0950670  78.0400356  32.0413069 120.9274024
  78.2563970  32.9237707 120.6262852  77.5594423  31.6499283 120.1979666
  81.4368279  45.5289458 122.3768871  81.6105157  44.9635880 121.6242724
  81.9297171  46.3290353 122.1948361  82.4243452  44.8456222 119.4765769
  83.1194357  45.4662915 119.6953084  82.7666602  43.9951574 119.7518147
  84.3234875  42.2955928 121.0053100  84.8486199  42.6343201 120.2802420
  84.2357228  41.3602943 120.8216235  76.0075536  48.3627911 125.3648353
  75.5680526  47.8704290 126.0581210  76.7583653  47.8200879 125.1240429
  68.4867875  44.5539452 125.3672981  69.3125895  44.2543224 124.9871625
  68.1361927  43.7847074 125.8162770  73.4549408  43.9065920 127.4370655
  72.8329417  43.2436625 127.1372883  74.1254275  43.9327052 126.7544303
  73.0162915  42.4569844 120.9129116  73.1651035  43.1405308 120.2595788
  73.8229358  42.4374934 121.4278571  70.7715548  38.4835021 121.9190184
  70.5261590  37.5797351 122.1170395  70.9411462  38.4852172 120.9769662
  70.0411195  34.2163379 119.4176346  69.3480440  34.2907734 118.7616382
  69.7962947  33.4523722 119.9397863  76.5158320  44.9517974 118.3840863
  75.9432287  45.5708161 117.9311335  77.0891114  45.5017336 118.9180785
  79.7355580  45.2355124 119.5149445  80.6686253  45.1700686 119.7182321
  79.6478793  46.0711391 119.0563978  82.3643597  44.5520994 116.4753393
  82.2857228  44.2180858 117.3689151  83.1853264  45.0442762 116.4744865
  76.9005119  36.2878787 115.7256915  77.8464224  36.1584995 115.7945334
  76.5219364  35.5493449 116.2026344  75.0848036  34.2128763 115.6611801
  74.1779491  33.9161876 115.7374514  75.3624017  33.9158581 114.7946087
  73.8546821  31.0715698 115.8023780  74.7165985  31.3970597 116.0619597
  74.0397165  30.2847194 115.2896846  82.0079457  29.9444225 122.9459003
  81.4278126  30.6029029 122.5637055  81.7415390  29.1221569 122.5346420
  80.7904335  32.1044315 122.0015351  79.9030190  32.3893966 121.7835546
  81.2058324  31.9438079 121.1542628  68.7988586  46.6852066 127.0886796
  68.6643054  45.9252467 126.5224794  68.3820648  47.4092966 126.6215585
  79.9347549  41.8688990 116.0963371  80.6383399  42.0738992 116.7121027
  79.2110197  42.4365752 116.3612455  80.7645359  37.6198851 122.2165641
  80.7080560  38.0767403 121.3773274  81.3173701  36.8589536 122.0388484
  71.9557711  47.5821383 127.3005239  71.8390096  48.5266816 127.1983929
  71.1350158  47.2794945 127.6891038  81.8434246  42.3071519 118.1461831
  82.6779850  41.8752718 117.9639306  81.6818589  42.1353533 119.0738726
  81.4980138  38.8103632 119.5118171  81.4428942  38.6447904 118.5706615
  80.8726193  39.5179665 119.6680360  74.8076264  28.3111741 119.0903489
  74.7954933  29.2553581 119.2471760  75.6999686  28.1281887 118.7962950
  72.9812226  48.2349645 130.5161167  73.8839472  48.2673256 130.8327662
  72.7549596  47.3050096 130.5307503  74.7365828  46.9880632 127.1771246
  73.7861459  46.9882493 127.0635618  75.0398314  46.2413366 126.6607280
  83.1395043  54.6304075 124.1675424  82.5759908  54.5394012 123.3991711
  83.0247438  53.8103979 124.6477916  80.6859475  56.1255266 127.0059644
  81.4780767  55.7846091 126.5905943  80.9256125  56.2350241 127.9261797
  88.7194602  58.2975042 119.4789888  88.0682582  58.8829123 119.0923902
  89.5138965  58.8281237 119.5384926  82.6450229  55.3864180 119.8777023
  83.4181105  54.8393167 119.7389899  82.9975628  56.2508429 120.0891484
  84.9816507  51.5456846 117.5095473  85.2342027  51.0238367 116.7478936
  84.0441066  51.3822991 117.6122156  90.0259790  50.5492624 125.3170216
  90.8122879  50.1312047 124.9660633  90.2898494  51.4538716 125.4851864
  90.1969867  55.9865474 120.0158873  89.5615700  56.0600101 120.7279777
  89.8667273  56.5759073 119.3377952  84.7012796  53.4484952 119.7119848
  84.5849054  52.7729855 120.3800932  84.8115055  52.9617326 118.8952001
  87.0444336  52.9095099 123.4166537  86.6802544  52.3825720 124.1279458
  87.9011452  52.5193568 123.2433022  86.6849823  47.9384998 118.4127885
  86.8524226  48.8065235 118.7798357  86.4946993  48.1012280 117.4889175
  82.8937638  52.8515774 126.1130420  81.9688135  52.7191988 126.3208112
  83.1422051  53.6309993 126.6100363  86.6639044  50.3942656 119.3974552
  86.5438670  50.8399707 120.2360033  85.9691633  50.7427974 118.8388090
  80.2546449  52.4949048 126.9474209  80.3838830  52.7483527 127.8613621
  79.5743900  53.0876756 126.6278864  92.3624110  50.8664129 120.2254886
  93.2741967  51.0991516 120.0502584  91.8533758  51.4501173 119.6629965
  86.5221655  55.5864356 124.8818553  86.9860000  55.8652059 124.0923175
  86.2578453  54.6847800 124.6991644  85.4590541  51.7087508 121.6908118
  86.1614584  52.1608552 122.1582044  85.1271169  51.0671327 122.3188011
  79.2015875  49.9671061 126.9925252  78.4114929  50.2228589 126.5165362
  79.6927122  50.7819399 127.0977292  81.1530620  50.3315640 123.9508728
  80.3561783  50.4434334 124.4692224  80.9256212  50.6702292 123.0849619
  77.4853578  50.2201551 129.4240242  77.7361616  51.1048561 129.6897818
  78.0213126  50.0406153 128.6515334  86.6984305  58.5228451 121.7670223
  86.5629980  59.3679986 122.1955071  87.2394118  58.7247728 121.0036157
  80.1513703  56.0403889 122.3398148  80.6638223  56.8347139 122.4903713
  80.8036416  55.3430179 122.2731750  81.9608587  59.1569645 124.4220902
  82.1375216  60.0787610 124.2341885  82.7565421  58.8428064 124.8515281
  78.1162620  54.3692543 123.1157719  78.9537842  54.7789551 122.8991427
  78.2940887  53.4291985 123.0857913  90.0127052  52.0367624 118.8041552
  89.4973675  52.8072228 119.0429939  89.7404360  51.3632760 119.4274613
  87.5974163  46.8817324 123.8626790  86.7415759  46.4924175 123.6832429
  88.0101114  46.9609285 123.0026576  85.3716195  44.5002397 127.2684532
  86.2369192  44.3045206 126.9090421  85.4393704  44.2712749 128.1953888
  94.9861326  54.7899978 120.7394725  94.2090769  54.4511138 120.2949887
  95.6652807  54.7952601 120.0649690  89.8013355  49.9094716 120.6301333
  89.4963490  50.2240865 121.4811476  90.7543797  49.9876136 120.6728666
  88.2459787  56.0684939 122.2794287  87.7181148  55.3337699 121.9667524
  87.7447289  56.8459615 122.0334255  82.9778514  46.7304605 124.6400899
  83.5522266  46.5079787 123.9074091  83.5649497  46.7993300 125.3929500
  83.3048101  48.7609066 118.6596784  82.4685414  49.0983753 118.9806059
  83.1652871  48.6258046 117.7223921  85.2801182  43.6045854 123.3675968
  84.6265594  43.2894871 122.7432583  85.2381656  42.9821595 124.0935791
  86.3912387  53.8865149 115.2829260  85.4839449  53.6554403 115.4820409
  86.8883419  53.0902769 115.4703242  89.2980466  62.5962656 118.2025946
  88.6242164  62.8994353 118.8110904  89.6846288  63.3991737 117.8531403
  88.5138922  50.0927788 127.6923616  87.5961484  50.3142735 127.5345304
  88.9299066  50.1674098 126.8335323  89.2973970  51.4919203 122.8226296
  90.0445789  52.0040601 122.5133418  89.5665560  51.1703256 123.6830689
  87.5700620  53.9877744 119.8053250  86.6611840  53.7036777 119.9025720
  87.5995704  54.4076823 118.9456557  91.7452807  48.5276320 124.8045085
  91.0075564  48.0153706 125.1355328  91.9979581  48.0876701 123.9928362
  78.1388791  51.7083258 123.7868452  77.9413190  51.1152619 123.0619519
  77.5835455  51.4035468 124.5044391  86.1185514  51.6006365 125.9063045
  86.1734124  50.6480201 125.8305522  85.3076716  51.7565804 126.3904344
  87.2676708  55.5286488 117.1441329  86.8296138  54.8122347 116.6846966
  88.0087149  55.7562603 116.5826420  84.0577874  50.2183425 123.6653424
  83.2445740  50.5177595 124.0718616  84.5536868  49.8239113 124.3827907
  83.5491949  47.7901780 129.2814659  84.1891328  47.6490539 128.5837623
  82.7169480  47.5036293 128.9053261  84.3252253  57.0904210 125.3949652
  85.1192851  56.5954531 125.1932227  83.6143945  56.5622074 125.0317357
  80.6335016  51.2347292 121.4709404  79.7032604  51.1731748 121.6879367
  80.7292488  50.7123245 120.6746046  80.5520565  47.7602105 124.0587646
  80.8127383  48.6747438 123.9496807  81.3737738  47.2926548 124.2084259
  82.0245491  49.1739862 131.2286471  82.6968544  48.9657224 130.5799120
  81.1975277  48.9761948 130.7891703  87.4971681  62.7642329 120.4173025
  87.6723437  62.2930372 121.2318648  86.8104469  63.3908095 120.6454286
  91.3887936  54.3870869 116.7373386  90.7717106  53.6617698 116.6406439
  90.9204424  55.1480230 116.3940461  83.1786482  48.6056294 115.8594691
  82.3015948  48.4845095 115.4956937  83.6544235  47.8142372 115.6073579
  74.6988622  53.3933454 125.9536198  75.3859662  53.0795184 125.3657213
  74.5436750  54.2974818 125.6803449  79.5023344  48.2823650 130.3821221
  79.4181533  47.6749320 129.6471631  78.6806050  48.7732668 130.3830718
  89.6747058  46.7677214 125.7491416  90.1715757  46.0147176 125.4292487
  88.9034039  46.8041530 125.1834626  90.7576838  55.5248901 123.3229840
  89.8233117  55.6450363 123.1534544  90.9353507  54.6221368 123.0589850
  86.2582026  48.9094597 125.4763101  85.8879814  48.3565637 126.1644007
  86.7541119  48.3052730 124.9238101  94.1449390  51.3666220 123.8579874
  94.6109842  52.1994212 123.7840177  94.5956890  50.9011202 124.5625132
  92.2125621  57.7110041 120.8566026  92.4885465  57.5966636 121.7659900
  91.3430120  57.3127526 120.8178199  74.2756598  51.4734047 128.2253665
  74.3140697  50.9397638 129.0190783  73.7696891  50.9469252 127.6064642
  81.6547360  46.3198587 131.7216207  81.7188687  47.1813418 131.3093605
  81.5914480  45.7072589 130.9888566  77.9065175  50.1998149 121.3007596
  78.2018617  49.2908827 121.2474650  77.0053211  50.1785888 120.9788599
  81.4359422  48.2754146 127.2835145  80.7146008  48.8890113 127.1442618
  82.2252678  48.8111910 127.2051791  79.6353017  47.8812247 121.4246921
  79.3065723  47.0009626 121.2422027  79.9892388  47.8259915 122.3123311
  82.7494840  48.1685216 121.7922399  83.0890913  48.6971138 121.0701007
  83.1966961  48.5065623 122.5680966  84.7362987  46.6659838 119.9915692
  85.4571350  47.0441091 119.4879409  84.1128291  47.3848715 120.0950670
  88.8794110  47.3704987 120.9274024  89.0957725  48.2529625 120.6262852
  88.3988177  46.9791200 120.1979666  83.6193332  50.3290700 127.5044769
  83.4737912  50.6431003 128.3969050  83.1418535  50.9475601 126.9515667
  85.4789714  47.3193248 127.5525658  85.4651283  46.4234342 127.2157956
  86.1962143  47.3263912 128.1863944  78.0938994  52.8696045 130.4432430
  77.5492462  53.6455853 130.5752704  78.9718344  53.2166849 130.2851551
  84.8826610  46.2007629 122.8213228  85.0042522  45.2724275 123.0204116
  84.5928653  46.2146315 121.9091544  93.2637206  60.1748140 119.4765769
  93.9588111  60.7954833 119.6953084  93.6060357  59.3243491 119.7518147
  95.1628630  57.6247846 121.0053100  95.6879954  57.9635118 120.2802420
  95.0750982  56.6894861 120.8216235  79.3261629  59.8831370 125.3672981
  80.1519649  59.5835142 124.9871625  78.9755681  59.1138992 125.8162770
  77.5270234  57.8017696 126.3261915  76.6902143  57.3739870 126.1445916
  77.4993880  57.9950139 127.2632706  83.8556669  57.7861761 120.9129116
  84.0044790  58.4697226 120.2595788  84.6623113  57.7666851 121.4278571
  81.6109302  53.8126939 121.9190184  81.3655344  52.9089269 122.1170395
  81.7805217  53.8144089 120.9769662  80.8804950  49.5455296 119.4176346
  80.1874195  49.6199651 118.7616382  80.6356702  48.7815640 119.9397863
  87.3552075  60.2809892 118.3840863  86.7826042  60.9000079 117.9311335
  87.9284869  60.8309253 118.9180785  90.5749335  60.5647042 119.5149445
  91.5080008  60.4992603 119.7182321  90.4872547  61.4003309 119.0563978
  93.2037351  59.8812912 116.4753393  93.1250983  59.5472776 117.3689151
  94.0247018  60.3734680 116.4744865  87.7398873  51.6170704 115.7256915
  88.6857978  51.4876913 115.7945334  87.3613118  50.8785366 116.2026344
  85.9241791  49.5420681 115.6611801  85.0173246  49.2453794 115.7374514
  86.2017772  49.2450499 114.7946087  76.8419731  50.8627044 126.1110847
  76.5222515  50.0092352 125.8185221  76.2953159  51.0775622 126.8668814
  87.5403856  44.0857571 121.8156042  86.7304585  43.7404656 122.1911288
  88.2288273  43.7765114 122.4043654  89.4694405  43.1635617 123.4380339
  90.0225443  43.5831071 124.0970362  89.7064491  42.2371365 123.4803295
  84.6940575  46.4007616 115.8023780  85.5559739  46.7262514 116.0619597
  84.8790919  45.6139112 115.2896846  76.7107991  54.4829956 128.0803969
  76.0171462  54.0683909 127.5673923  77.4580982  54.5250492 127.4837388
  92.8473212  45.2736142 122.9459003  92.2671881  45.9320947 122.5637055
  92.5809144  44.4513487 122.5346420  78.6244733  54.4148210 125.9569984
  78.6015422  54.5135897 125.0051867  78.9345370  55.2613360 126.2787150
  91.6298090  47.4336233 122.0015351  90.7423945  47.7185884 121.7835546
  92.0452079  47.2729996 121.1542628  90.7741303  57.1980908 116.0963371
  91.4777153  57.4030910 116.7121027  90.0503952  57.7657669 116.3612455
  91.6039113  52.9490769 122.2165641  91.5474315  53.4059320 121.3773274
  92.1567456  52.1881453 122.0388484  92.6828001  57.6363437 118.1461831
  93.5173604  57.2044635 117.9639306  92.5212343  57.4645450 119.0738726
  92.3373893  54.1395550 119.5118171  92.2822696  53.9739821 118.5706615
  91.7119948  54.8471583 119.6680360  85.6470018  43.6403659 119.0903489
  85.6348688  44.5845499 119.2471760  86.5393440  43.4573804 118.7962950
  94.0180236  63.9348211 115.8594691  93.1409702  63.8137012 115.4956937
  94.4937989  63.1434290 115.6073579  96.7635545  64.8712598 115.6611801
  95.8567000  64.5745711 115.7374514  97.0411526  64.5742417 114.7946087
  95.5334330  61.7299534 115.8023780  96.3953494  62.0554432 116.0619597
  95.7184674  60.9431030 115.2896846  96.4863773  58.9695577 119.0903489
  96.4742442  59.9137417 119.2471760  97.3787195  58.7865722 118.7962950
  67.6192958   8.9440944 104.9271253  66.9454657   9.2472640 105.5356211
  68.0058780   9.7470024 104.5776710  71.5849699   6.5226427 106.2011076
  72.2800603   7.1433120 106.4198391  71.9272849   5.6721778 106.4763454
  68.8961827   6.9125329 106.2394752  69.8292500   6.8470891 106.4427627
  68.8085040   7.7481596 105.7809285  71.5249844   6.2291199 103.1998699
  71.4463475   5.8951063 104.0934457  72.3459510   6.7212967 103.1990172
  69.0953795   3.5459195 102.8208678  69.7989646   3.7509197 103.4366333
  68.3716444   4.1135957 103.0857761  79.6324768  14.5011375 114.9662315
  80.2703178  14.3818122 114.2625655  79.5145611  15.4492219 115.0250267
  72.3001290  16.3074280 110.8920730  71.7366155  16.2164217 110.1237018
  72.1853685  15.4874184 111.3723223  77.8800849  19.9745247 106.2035195
  77.2288828  20.5599328 105.8169209  78.6745211  20.5051442 106.2630233
  71.8056476  17.0634384 106.6022329  72.5787352  16.5163372 106.4635205
  72.1581875  17.9278634 106.8136791  74.1422754  13.2227051 104.2340779
  74.3948274  12.7008572 103.4724242  73.2047313  13.0593196 104.3367463
  79.1866036  12.2262829 112.0415523  79.9729126  11.8082252 111.6905940
  79.4504741  13.1308921 112.2097171  79.3576114  17.6635679 106.7404179
  78.7221947  17.7370306 107.4525084  79.0273520  18.2529278 106.0623259
  73.8619042  15.1255157 106.4365154  73.7455300  14.4500060 107.1046239
  73.9721302  14.6387530 105.6197307  76.2050583  14.5865304 110.1411844
  75.8408790  14.0595925 110.8524765  77.0617699  14.1963773 109.9678329
  75.8456070   9.6155203 105.1373192  76.0130473  10.4835440 105.5043663
  75.6553239   9.7782485 104.2134481  75.8245291  12.0712861 106.1219859
  75.7044916  12.5169912 106.9605339  75.1297879  12.4198179 105.5633397
  73.5852183  24.8416503 109.7709990  73.5076213  25.7924328 109.8498471
  72.9813827  24.4962375 110.4284916  81.5230357  12.5434334 106.9500193
  82.4348213  12.7761721 106.7747891  81.0140004  13.1271378 106.3875272
  80.1299940  17.5260152 114.3413774  79.5008802  17.6905867 113.6389842
  79.7425602  17.9401762 115.1124738  84.0089171  18.4614590 111.6958138
  83.3240210  18.8413492 111.1455172  84.0933021  19.0709917 112.4290086
  75.6827901  17.2634561 111.6063860  76.1466247  17.5422264 110.8168482
  75.4184700  16.3618005 111.4236950  74.6196787  13.3857713 108.4153425
  75.3220831  13.8378757 108.8827351  74.2877416  12.7441532 109.0433318
  75.8590552  20.1998656 108.4915530  75.7236227  21.0450191 108.9200378
  76.4000365  20.4017933 107.7281464  69.3119949  17.7174094 109.0643455
  69.8244470  18.5117344 109.2149020  69.9642662  17.0200384 108.9977056
  71.1214834  20.8339850 111.1466208  71.2981463  21.7557815 110.9587192
  71.9171668  20.5198269 111.5760588  67.2768866  16.0462748 109.8403026
  68.1144088  16.4559756 109.6236733  67.4547134  15.1062190 109.8103219
  79.1733298  13.7137829 105.5286858  78.6579922  14.4842433 105.7675246
  78.9010607  13.0402965 106.1519920  84.1467573  16.4670183 107.4640032
  83.3697015  16.1281343 107.0195194  84.8259053  16.4722806 106.7894997
  78.9619602  11.5864921 107.3546640  78.6569737  11.9011070 108.2056783
  79.9150044  11.6646341 107.3973973  77.4066033  17.7455144 109.0039594
  76.8787395  17.0107904 108.6912831  76.9053536  18.5229820 108.7579562
  82.3858879  15.9404164 114.1206640  81.7282554  16.6303426 114.2086769
  83.1899279  16.3300596 114.4640626  81.1964338  14.2948537 112.1710582
  81.7096220  14.9278529 112.6732291  81.8465562  13.6949733 111.8053942
  72.4654348  10.4379271 105.3842090  71.6291660  10.7753958 105.7051365
  72.3259118  10.3028251 104.4469227  75.5518634  15.5635354 102.0074567
  74.6445695  15.3324608 102.2065716  76.0489666  14.7672973 102.1948548
  78.4586712  24.2732861 104.9271253  77.7848411  24.5764558 105.5356211
  78.8452534  25.0761942 104.5776710  78.4580217  13.1689408 109.5471602
  79.2052036  13.6810806 109.2378725  78.7271806  12.8473461 110.4075996
  76.7306867  15.6647949 106.5298557  75.8218086  15.3806982 106.6271026
  76.7601951  16.0847028 105.6701864  81.9626134  19.2754539 110.2989724
  81.5088462  18.4345448 110.3554915  81.3320101  19.9115937 110.6364504
  80.9059054  10.2046525 111.5290392  80.1681811   9.6923911 111.8600634
  81.1585828   9.7646906 110.7173669  80.4059074  21.1131035 111.2339542
  80.6982048  21.6736092 110.5151908  80.9157694  21.4059596 111.9892702
  76.4282955  17.2056693 103.8686635  75.9902385  16.4892552 103.4092273
  77.1693396  17.4332808 103.3071727  73.2184121  11.8953629 110.3898731
  72.4051987  12.1947800 110.7963923  73.7143115  11.5009318 111.1073213
  75.3692699  21.8911386 112.3232996  75.3268878  22.1172233 111.3941528
  76.2855398  21.6574761 112.4718797  84.5456070  15.4813890 109.9262954
  84.4073968  15.6715486 108.9984143  84.1892288  16.2433273 110.3831005
  73.4858500  18.7674415 112.1194958  74.2799098  18.2724736 111.9177533
  72.7750192  18.2392279 111.7562664  78.3053344  21.1492511 116.4707326
  78.3590366  21.7183447 117.2385042  77.4368125  21.3194396 116.1061363
  69.7941263  12.9117497 108.1954711  68.8638851  12.8501953 108.4124673
  69.8898735  12.3893450 107.3991352  76.6577928  24.4412534 107.1418332
  76.8329683  23.9700577 107.9563955  75.9710716  25.0678300 107.3699593
  77.6134991  18.7185040 113.1881633  77.2784823  18.6785810 114.0839283
  77.1138936  18.0529756 112.7152043  80.5494182  16.0641074 103.4618693
  79.9323353  15.3387903 103.3651746  80.0810671  16.8250435 103.1185767
  71.2239013  27.5901897 113.9158192  71.4635611  28.2220421 114.5937211
  70.3808209  27.2389937 114.2023551  72.3392728  10.2826499 102.5839997
  71.4622195  10.1615299 102.2202244  72.8150481   9.4912577 102.3318886
  75.7366875  23.3981019 116.3199696  75.6637046  24.2035991 116.8319001
  75.2944268  23.5972985 115.4947718  75.5256654  22.6352789 109.8302518
  74.7424176  23.1774469 109.9240742  76.2249400  23.1526769 110.2296759
  78.1965558  23.2967853 118.4757855  78.9093530  23.9315318 118.4033756
  77.7055587  23.3931719 117.6597857  79.9183085  17.2019106 110.0475146
  78.9839364  17.3220568 109.8779851  80.0959754  16.2991573 109.7835156
  83.3055637  13.0436425 110.5825181  83.7716089  13.8764417 110.5085483
  83.7563137  12.5781407 111.2870439  81.3731868  19.3880246 107.5811333
  81.6491712  19.2736841 108.4905207  80.5036366  18.9897731 107.5423506
  78.0085932  23.6366597 111.2244146  78.1908326  22.8188253 111.6871899
  78.8318918  23.8534289 110.7869036  78.3428097  22.5634782 108.4859195
  78.8715864  22.0527237 107.8729357  78.6056317  22.2477313 109.3504728
  71.6983845  23.6149899 111.2456971  71.0294220  24.0996027 110.7621011
  71.5596715  23.8619119 112.1600349  75.8389114  25.6493643 117.8439629
  76.3907422  25.8125264 118.6088714  76.1795307  26.2398080 117.1719654
  67.0671422  11.8768354 108.0252903  67.3624863  10.9679032 107.9719957
  66.1659458  11.8556093 107.7033905  78.9757501  23.5975618 114.8303311
  78.8508640  22.7965358 114.3214257  79.6336592  24.0921811 114.3417281
  81.0392409  21.3984638 116.4582861  80.0922745  21.2789989 116.3861188
  81.3875182  20.5107136 116.5409123  78.0438843  21.1937354 112.6587214
  77.8963805  20.2654062 112.8394784  78.8692336  21.2157445 112.1744289
  71.9101087   9.8455421 108.5167706  72.2497159  10.3741343 107.7946314
  72.3573207  10.1835828 109.2926272  81.6472964  22.0165913 113.7452086
  82.5719512  21.8108774 113.6076537  81.4788268  21.7682314 114.6541428
  73.8969234   8.3430043 106.7160998  74.6177597   8.7211296 106.2124715
  73.2734538   9.0618920 106.8195976  78.0400357   9.0475192 107.6519331
  78.2563971   9.9299830 107.3508159  77.5594424   8.6561405 106.9224973
  81.4368281  22.5351581 109.1014178  81.6105158  21.9698003 108.3488030
  81.9297172  23.3352475 108.9193668  82.4243453  21.8518345 106.2011076
  83.1194358  22.4725038 106.4198391  82.7666603  21.0013696 106.4763454
  84.3234876  19.3018050 107.7298407  84.8486200  19.6405323 107.0047727
  84.2357229  18.3665066 107.5461541  76.0075537  25.3690034 112.0893660
  75.5680527  24.8766412 112.7826517  76.7583654  24.8263001 111.8485735
  68.4867876  21.5601575 112.0918288  69.3125896  21.2605346 111.7116932
  68.1361928  20.7909197 112.5408077  73.4549409  20.9128043 114.1615962
  72.8329418  20.2498748 113.8618190  74.1254276  20.9389175 113.4789609
  73.0162916  19.4631966 107.6374422  73.1651036  20.1467431 106.9841095
  73.8229360  19.4437056 108.1523878  70.7715549  15.4897144 108.6435491
  70.5261591  14.5859474 108.8415701  70.9411464  15.4914294 107.7014969
  70.0411197  11.2225501 106.1421653  69.3480442  11.2969856 105.4861689
  69.7962949  10.4585845 106.6643169  76.5158322  21.9580097 105.1086170
  75.9432289  22.5770284 104.6556641  77.0891115  22.5079458 105.6426092
  79.7355581  22.2417247 106.2394752  80.6686255  22.1762808 106.4427627
  79.6478794  23.0773514 105.7809285  82.3643598  21.5583117 103.1998699
  82.2857230  21.2242981 104.0934457  83.1853265  22.0504885 103.1990172
  76.9005120  13.2940909 102.4502222  77.8464225  13.1647117 102.5190640
  76.5219365  12.5555571 102.9271650  75.0848037  11.2190886 102.3857107
  74.1779493  10.9223998 102.4619821  75.3624018  10.9220704 101.5191394
  73.8546822   8.0777821 102.5269087  74.7165986   8.4032719 102.7864904
  74.0397166   7.2909317 102.0142152  82.0079458   6.9506347 109.6704310
  81.4278127   7.6091151 109.2882362  81.7415391   6.1283692 109.2591727
  80.7904336   9.1106438 108.7260658  79.9030191   9.3956088 108.5080853
  81.2058325   8.9500201 107.8787935  68.7988587  23.6914189 113.8132102
  68.6643055  22.9314590 113.2470101  68.3820649  24.4155089 113.3460891
  79.9347550  18.8751112 102.8208678  80.6383400  19.0801115 103.4366333
  79.2110199  19.4427874 103.0857761  80.7645360  14.6260974 108.9410948
  80.7080562  15.0829525 108.1018580  81.3173703  13.8651658 108.7633791
  71.9557713  24.5883506 114.0250545  71.8390097  25.5328938 113.9229235
  71.1350159  24.2857068 114.4136344  81.8434247  19.3133642 104.8707138
  82.6779851  18.8814840 104.6884613  81.6818590  19.1415655 105.7984032
  81.4980139  15.8165755 106.2363477  81.4428943  15.6510026 105.2951921
  80.8726195  16.5241788 106.3925667  74.8076265   5.3173864 105.8148796
  74.7954935   6.2615704 105.9717066  75.6999687   5.1344009 105.5208257
  72.9812227  25.2411768 117.2406474  73.8839474  25.2735378 117.5572969
  72.7549597  24.3112219 117.2552809  74.7365829  23.9942754 113.9016552
  73.7861460  23.9944616 113.7880924  75.0398315  23.2475489 113.3852587
  90.4718522  29.8303293 114.9662315  91.1096932  29.7110040 114.2625655
  90.3539365  30.7784137 115.0250267  87.2808229  29.7830721 114.9023839
  86.9426740  29.6671786 114.0144374  88.1497997  29.3821886 114.8824845
  83.1395044  31.6366197 110.8920730  82.5759909  31.5456134 110.1237018
  83.0247439  30.8166102 111.3723223  80.6859476  33.1317389 113.7304951
  81.4780768  32.7908214 113.3151250  80.9256126  33.2412364 114.6507104
  88.7194603  35.3037165 106.2035195  88.0682583  35.8891245 105.8169209
  89.5138966  35.8343360 106.2630233  82.6450230  32.3926302 106.6022329
  83.4181106  31.8455289 106.4635205  82.9975629  33.2570551 106.8136791
  84.4835273  33.7202684 119.8089229  84.1925139  34.6248315 119.6935895
  85.1192257  33.7619212 120.5233298  85.4091480  31.0979533 116.3990588
  86.0055052  30.8735555 115.6847551  85.4666451  30.3564278 117.0016036
  84.9816508  28.5518968 104.2340779  85.2342029  28.0300490 103.4724242
  84.0441067  28.3885114 104.3367463  90.0259791  27.5554747 112.0415523
  90.8122880  27.1374170 111.6905940  90.2898495  28.4600839 112.2097171
  90.1969868  32.9927597 106.7404179  89.5615701  33.0662223 107.4525084
  89.8667275  33.5821196 106.0623259  84.7012797  30.4547074 106.4365154
  84.5849055  29.7791978 107.1046239  84.8115057  29.9679448 105.6197307
  87.0444338  29.9157221 110.1411844  86.6802545  29.3887842 110.8524765
  87.9011454  29.5255690 109.9678329  86.6849825  24.9447121 105.1373192
  86.8524227  25.8127357 105.5043663  86.4946994  25.1074403 104.2134481
  89.4425158  33.4064100 116.8039022  89.1425881  34.3089139 116.6954830
  89.0976217  33.1396283 117.6560175  82.8937639  29.8577897 112.8375727
  81.9688136  29.7254111 113.0453419  83.1422053  30.6372116 113.3345669
  86.6639046  27.4004779 106.1219859  86.5438671  27.8461829 106.9605339
  85.9691634  27.7490096 105.5633397  80.2546450  29.5011170 113.6719516
  80.3838832  29.7545649 114.5858928  79.5743902  30.0938878 113.3524171
  84.4245938  40.1708420 109.7709990  84.3469967  41.1216245 109.8498471
  83.8207581  39.8254293 110.4284916  92.3624112  27.8726252 106.9500193
  93.2741968  28.1053638 106.7747891  91.8533759  28.4563296 106.3875272
  90.9693694  32.8552070 114.3413774  90.3402556  33.0197784 113.6389842
  90.5819356  33.2693680 115.1124738  94.8482926  33.7906508 111.6958138
  94.1633964  34.1705409 111.1455172  94.9326775  34.4001835 112.4290086
  86.5221656  32.5926478 111.6063860  86.9860001  32.8714181 110.8168482
  86.2578454  31.6909923 111.4236950  83.4145737  32.1397960 114.5443623
  83.9847094  32.5685228 113.9061107  84.0053849  31.8580544 115.2427808
  85.4590542  28.7149631 108.4153425  86.1614585  29.1670674 108.8827351
  85.1271170  28.0733449 109.0433318  79.2015876  26.9733183 113.7170558
  78.4114930  27.2290712 113.2410669  79.6927123  27.7881521 113.8222599
  81.1530621  27.3377763 110.6754035  80.3561785  27.4496457 111.1937531
  80.9256214  27.6764415 109.8094925  86.9836289  33.8622466 118.6236550
  87.0480721  34.3242873 119.4594721  86.2747213  33.2319831 118.7518859
  77.4853579  27.2263674 116.1485549  77.7361617  28.1110684 116.4143125
  78.0213127  27.0468275 115.3760641  86.6984307  35.5290573 108.4915530
  86.5629981  36.3742109 108.9200378  87.2394119  35.7309851 107.7281464
  80.1513704  33.0466011 109.0643455  80.6638225  33.8409262 109.2149020
  80.8036417  32.3492302 108.9977056  81.9608589  36.1631768 111.1466208
  82.1375217  37.0849732 110.9587192  82.7565422  35.8490187 111.5760588
  81.2460945  28.2096399 121.0228371  81.1314460  27.3081657 121.3235470
  80.3905463  28.4560096 120.6713188  83.0839904  37.6809941 117.1476550
  83.6347329  37.5527005 116.3753544  82.2451380  37.9804830 116.7971443
  78.1162621  31.3754666 109.8403026  78.9537843  31.7851674 109.6236733
  78.2940888  30.4354108 109.8103219  90.0127053  29.0429746 105.5286858
  89.4973676  29.8134351 105.7675246  89.7404361  28.3694882 106.1519920
  87.5974164  23.8879447 110.5872097  86.7415760  23.4986297 110.4077736
  88.0101116  23.9671408 109.7271882  85.3716196  21.5064520 113.9929838
  86.2369193  21.3107329 113.6335728  85.4393705  21.2774872 114.9199195
  94.9861327  31.7962101 107.4640032  94.2090770  31.4573260 107.0195194
  95.6652808  31.8014724 106.7894997  89.8013356  26.9156838 107.3546640
  89.4963492  27.2302988 108.2056783  90.7543798  26.9938258 107.3973973
  88.2459788  33.0747062 109.0039594  87.7181149  32.3399821 108.6912831
  87.7447291  33.8521738 108.7579562  93.2252634  31.2696082 114.1206640
  92.5676308  31.9595344 114.2086769  94.0293033  31.6592514 114.4640626
  82.9778516  23.7366728 111.3646205  83.5522267  23.5141909 110.6319398
  83.5649498  23.8055422 112.1174806  92.0358093  29.6240455 112.1710582
  92.5489974  30.2570447 112.6732291  92.6859317  29.0241650 111.8053942
  83.3048103  25.7671189 105.3842090  82.4685415  26.1045875 105.7051365
  83.1652872  25.6320169 104.4469227  85.2801183  20.6107977 110.0921275
  84.6265596  20.2956994 109.4677889  85.2381657  19.9883717 110.8181098
  86.3912388  30.8927272 102.0074567  85.4839450  30.6616525 102.2065716
  86.8883420  30.0964891 102.1948548  89.2980467  39.6024779 104.9271253
  88.6242166  39.9056476 105.5356211  89.6846289  40.4053859 104.5776710
  88.5138924  27.0989910 114.4168922  87.5961485  27.3204857 114.2590610
  88.9299067  27.1736221 113.5580630  89.2973971  28.4981326 109.5471602
  90.0445790  29.0102723 109.2378725  89.5665561  28.1765379 110.4075996
  87.5700622  30.9939867 106.5298557  86.6611841  30.7098900 106.6271026
  87.5995705  31.4138945 105.6701864  92.8019889  34.6046456 110.2989724
  92.3482216  33.7637366 110.3554915  92.1713856  35.2407855 110.6364504
  91.7452808  25.5338442 111.5290392  91.0075565  25.0215829 111.8600634
  91.9979582  25.0938824 110.7173669  91.2452828  36.4422953 111.2339542
  91.5375803  37.0028010 110.5151908  91.7551449  36.7351514 111.9892702
  78.1388792  28.7145381 110.5113759  77.9413192  28.1214742 109.7864826
  77.5835456  28.4097591 111.2289698  86.1185516  28.6068487 112.6308352
  86.1734125  27.6542324 112.5550829  85.3076718  28.7627926 113.1149651
  87.2676709  32.5348610 103.8686635  86.8296139  31.8184469 103.4092273
  88.0087150  32.7624725 103.3071727  84.0577875  27.2245547 110.3898731
  83.2445741  27.5239718 110.7963923  84.5536870  26.8301236 111.1073213
  86.2086453  37.2203304 112.3232996  86.1662632  37.4464150 111.3941528
  87.1249152  36.9866679 112.4718797  95.3849824  30.8105807 109.9262954
  95.2467723  31.0007403 108.9984143  95.0286043  31.5725190 110.3831005
  83.5491950  24.7963903 116.0059966  84.1891330  24.6552662 115.3082929
  82.7169481  24.5098416 115.6298568  84.3252254  34.0966333 112.1194958
  85.1192853  33.6016653 111.9177533  83.6143947  33.5684196 111.7562664
  89.1447099  36.4784429 116.4707326  89.1984121  37.0475365 117.2385042
  88.2761880  36.6486314 116.1061363  80.6335018  28.2409415 108.1954711
  79.7032606  28.1793870 108.4124673  80.7292490  27.7185368 107.3991352
  80.5520567  24.7664228 110.7832953  80.8127384  25.6809561 110.6742113
  81.3737739  24.2988670 110.9329566  82.0245492  26.1801985 117.9531777
  82.6968545  25.9719347 117.3044426  81.1975279  25.9824071 117.5137010
  88.1035198  30.6444691 118.0294258  89.0327258  30.7955850 117.8563225
  87.6826228  30.7328711 117.1742904  86.9023530  34.6695355 115.7992795
  86.7634616  34.3014139 116.6718734  86.1138126  35.1842994 115.6276753
  87.4971682  39.7704452 107.1418332  87.6723438  39.2992495 107.9563955
  86.8104470  40.3970218 107.3699593  88.4528745  34.0476958 113.1881633
  88.1178578  34.0077728 114.0839283  87.9532691  33.3821674 112.7152043
  82.4272989  29.4544588 118.7134214  82.2892787  28.7224827 119.3145753
  83.3377913  29.3653488 118.4318402  91.3887937  31.3932992 103.4618693
  90.7717108  30.6679820 103.3651746  90.9204425  32.1542352 103.1185767
  85.0555290  29.1664547 118.2017894  85.7654908  28.5257739 118.1604512
  85.0124598  29.4177442 119.1244075  82.0632767  42.9193814 113.9158192
  82.3029366  43.5512338 114.5937211  81.2201964  42.5681854 114.2023551
  83.1786483  25.6118416 102.5839997  82.3015949  25.4907217 102.2202244
  83.6544236  24.8204495 102.3318886  74.6988623  30.3995576 112.6781504
  75.3859663  30.0857306 112.0902520  74.5436752  31.3036941 112.4048756
  79.5023345  25.2885773 117.1066528  79.4181534  24.6811442 116.3716938
  78.6806052  25.7794791 117.1076024  86.5760629  38.7272937 116.3199696
  86.5030801  39.5327908 116.8319001  86.1338022  38.9264903 115.4947718
  86.3650409  37.9644707 109.8302518  85.5817931  38.5066387 109.9240742
  87.0643154  38.4818686 110.2296759  89.6747059  23.7739336 112.4736723
  90.1715759  23.0209299 112.1537793  88.9034040  23.8103653 111.9079932
  89.0359313  38.6259771 118.4757855  89.7487285  39.2607236 118.4033756
  88.5449341  38.7223637 117.6597857  90.7576840  32.5311023 110.0475146
  89.8233118  32.6512486 109.8779851  90.9353508  31.6283490 109.7835156
  86.2582028  25.9156719 112.2008408  85.8879815  25.3627760 112.8889313
  86.7541120  25.3114853 111.6483408  94.1449391  28.3728343 110.5825181
  94.6109843  29.2056334 110.5085483  94.5956892  27.9073324 111.2870439
  84.0871226  36.3754214 119.2963426  84.7880686  37.0090697 119.4492820
  83.6166341  36.7168946 118.5359065  92.2125622  34.7172164 107.5811333
  92.4885466  34.6028759 108.4905207  91.3430121  34.3189649 107.5423506
  88.8479686  38.9658515 111.2244146  89.0302081  38.1480171 111.6871899
  89.6712672  39.1826207 110.7869036  89.1821852  37.8926700 108.4859195
  89.7109618  37.3819155 107.8729357  89.4450071  37.5769230 109.3504728
  79.6838944  35.9090569 116.2294528  80.2692381  35.1634257 116.3622433
  79.4863783  36.2194526 117.1131192  82.5377600  38.9441817 111.2456971
  81.8687975  39.4287944 110.7621011  82.3990469  39.1911037 112.1600349
  74.2756599  28.4796169 114.9498971  74.3140699  27.9459760 115.7436090
  73.7696892  27.9531375 114.3309949  86.6782868  40.9785560 117.8439629
  87.2301176  41.1417182 118.6088714  87.0189062  41.5689998 117.1719654
  81.6547361  23.3260710 118.4461514  81.7188688  24.1875541 118.0338911
  81.5914482  22.7134712 117.7133872  77.9065177  27.2060272 108.0252903
  78.2018618  26.2970950 107.9719957  77.0053212  27.1848011 107.7033905
  89.8151255  38.9267536 114.8303311  89.6902395  38.1257276 114.3214257
  90.4730347  39.4213729 114.3417281  81.4359424  25.2816268 114.0080451
  80.7146009  25.8952236 113.8687925  82.2252679  25.8174033 113.9297097
  91.8786164  36.7276556 116.4582861  90.9316499  36.6081907 116.3861188
  92.2268937  35.8399054 116.5409123  79.6353018  24.8874369 108.1492228
  79.3065724  24.0071748 107.9667334  79.9892389  24.8322038 109.0368617
  88.8832597  36.5229272 112.6587214  88.7357560  35.5945979 112.8394784
  89.7086091  36.5449363 112.1744289  82.7494841  25.1747339 108.5167706
  83.0890914  25.7033260 107.7946314  83.1966962  25.5127745 109.2926272
  92.4866719  37.3457831 113.7452086  93.4113266  37.1400692 113.6076537
  92.3182022  37.0974232 114.6541428  84.7362989  23.6721961 106.7160998
  85.4571351  24.0503213 106.2124715  84.1128293  24.3910837 106.8195976
  88.8794111  24.3767110 107.6519331  89.0957726  25.2591748 107.3508159
  88.3988179  23.9853323 106.9224973  83.6193333  27.3352823 114.2290075
  83.4737914  27.6493126 115.1214357  83.1418536  27.9537723 113.6760974
  85.4789716  24.3255371 114.2770965  85.4651284  23.4296464 113.9403263
  86.1962144  24.3326035 114.9109251  92.2762035  37.8643498 109.1014178
  92.4498913  37.2989921 108.3488030  92.7690926  38.6644393 108.9193668
  78.0938995  29.8758167 117.1677737  77.5492463  30.6517975 117.2998011
  78.9718345  30.2228972 117.0096858  84.8826612  23.2069751 109.5458535
  85.0042523  22.2786397 109.7449423  84.5928654  23.2208437 108.6336850
  93.2637208  37.1810263 106.2011076  93.9588112  37.8016955 106.4198391
  93.6060358  36.3305614 106.4763454  78.8805017  29.0028064 120.0607893
  78.1386753  29.1510699 120.6472524  78.5597761  29.2636329 119.1974643
  95.1628631  34.6309968 107.7298407  95.6879955  34.9697241 107.0047727
  95.0750983  33.6956983 107.5461541  86.8248679  38.5444042 119.8588283
  87.1335806  38.2993189 120.7310983  87.6224162  38.7490680 119.3707154
  86.8469292  40.6981951 112.0893660  86.4074282  40.2058330 112.7826517
  87.5977408  40.1554919 111.8485735  79.3261631  36.8893492 112.0918288
  80.1519650  36.5897264 111.7116932  78.9755683  36.1201115 112.5408077
  84.2943164  36.2419960 114.1615962  83.6723173  35.5790666 113.8618190
  84.9648031  36.2681092 113.4789609  77.5270236  34.8079819 113.0507222
  76.6902144  34.3801993 112.8691223  77.4993881  35.0012262 113.9878013
  83.8556671  34.7923884 107.6374422  84.0044791  35.4759348 106.9841095
  84.6623114  34.7728974 108.1523878  81.6109304  30.8189061 108.6435491
  81.3655346  29.9151391 108.8415701  81.7805218  30.8206212 107.7014969
  80.8804951  26.5517419 106.1421653  80.1874196  26.6261774 105.4861689
  80.6356703  25.7877763 106.6643169  87.3552076  37.2872014 105.1086170
  86.7826043  37.9062201 104.6556641  87.9284870  37.8371376 105.6426092
  90.5749336  37.5709164 106.2394752  91.5080009  37.5054726 106.4427627
  90.4872549  38.4065431 105.7809285  93.2037353  36.8875035 103.1998699
  93.1250984  36.5534898 104.0934457  94.0247019  37.3796803 103.1990172
  87.7398875  28.6232827 102.4502222  88.6857979  28.4939035 102.5190640
  87.3613120  27.8847489 102.9271650  85.9241792  26.5482803 102.3857107
  85.0173247  26.2515916 102.4619821  86.2017773  26.2512622 101.5191394
  76.8419732  27.8689167 112.8356154  76.5222517  27.0154475 112.5430528
  76.2953160  28.0837745 113.5914121  80.6199640  30.5851608 116.5525660
  80.8385649  31.5168716 116.5713694  81.0325414  30.2259582 117.3380464
  87.5403858  21.0919693 108.5401349  86.7304586  20.7466778 108.9156595
  88.2288274  20.7827237 109.1288960  89.4694406  20.1697740 110.1625645
  90.0225444  20.5893193 110.8215668  89.7064492  19.2433488 110.2048601
  84.6940576  23.4069739 102.5269087  85.5559740  23.7324637 102.7864904
  84.8790921  22.6201235 102.0142152  76.7107992  31.4892078 114.8049275
  76.0171464  31.0746031 114.2919230  77.4580983  31.5312615 114.2082694
  92.8473213  22.2798265 109.6704310  92.2671882  22.9383069 109.2882362
  92.5809146  21.4575610 109.2591727  78.6244735  31.4210332 112.6815290
  78.6015423  31.5198019 111.7297173  78.9345371  32.2675483 113.0032456
  81.2832113  33.4786487 116.7961905  82.2375366  33.4470429 116.7291836
  81.0844636  33.0177111 117.6112131  81.8731495  32.0487603 119.3632702
  82.6924384  32.5431682 119.3867540  82.1468302  31.1319571 119.3350270
  91.6298091  24.4398355 108.7260658  90.7423946  24.7248006 108.5080853
  92.0452080  24.2792119 107.8787935  79.6382341  39.0206107 113.8132102
  79.5036809  38.2606507 113.2470101  79.2214404  39.7447006 113.3460891
  90.7741304  34.2043030 102.8208678  91.4777154  34.4093033 103.4366333
  90.0503953  34.7719792 103.0857761  91.6039115  29.9552891 108.9410948
  91.5474316  30.4121443 108.1018580  92.1567457  29.1943576 108.7633791
  82.7951467  39.9175424 114.0250545  82.6783851  40.8620856 113.9229235
  81.9743913  39.6148985 114.4136344  92.6828002  34.6425559 104.8707138
  93.5173606  34.2106758 104.6884613  92.5212345  34.4707573 105.7984032
  92.3373894  31.1457673 106.2363477  92.2822698  30.9801944 105.2951921
  91.7119949  31.8533706 106.3925667  77.1266409  26.3825737 120.0624899
  77.7725273  25.8724691 120.5512125  76.9183560  27.1194419 120.6368325
  85.6470019  20.6465782 105.8148796  85.6348689  21.5907622 105.9717066
  86.5393441  20.4635927 105.5208257  83.8205981  40.5703686 117.2406474
  84.7233228  40.6027296 117.5572969  83.5943351  39.6404136 117.2552809
  85.5759583  39.3234672 113.9016552  84.6255214  39.3236534 113.7880924
  85.8792070  38.5767407 113.3852587 101.3112277  45.1595210 114.9662315
 101.9490687  45.0401958 114.2625655 101.1933120  46.1076054 115.0250267
  98.1201983  45.1122639 114.9023839  97.7820495  44.9963703 114.0144374
  98.9891751  44.7113804 114.8824845  93.9788799  46.9658115 110.8920730
  93.4153664  46.8748052 110.1237018  93.8641194  46.1458019 111.3723223
  91.5253231  48.4609307 113.7304951  92.3174523  48.1200131 113.3151250
  91.7649881  48.5704282 114.6507104  99.5588358  50.6329083 106.2035195
  98.9076337  51.2183163 105.8169209 100.3532720  51.1635278 106.2630233
  93.4843985  47.7218220 106.6022329  94.2574861  47.1747207 106.4635205
  93.8369384  48.5862469 106.8136791  95.3229027  49.0494602 119.8089229
  95.0318893  49.9540233 119.6935895  95.9586012  49.0911130 120.5233298
  96.2485234  46.4271451 116.3990588  96.8448806  46.2027473 115.6847551
  96.3060206  45.6856196 117.0016036  95.8210263  43.8810886 104.2340779
  96.0735783  43.3592407 103.4724242  94.8834822  43.7177031 104.3367463
 100.8653545  42.8846664 112.0415523 101.6516635  42.4666087 111.6905940
 101.1292250  43.7892756 112.2097171 101.0363623  48.3219515 106.7404179
 100.4009456  48.3954141 107.4525084 100.7061029  48.9113113 106.0623259
  95.5406551  45.7838992 106.4365154  95.4242809  45.1083895 107.1046239
  95.6508811  45.2971366 105.6197307  97.8838092  45.2449139 110.1411844
  97.5196299  44.7179760 110.8524765  98.7405208  44.8547608 109.9678329
  97.5243579  40.2739039 105.1373192  97.6917982  41.1419275 105.5043663
  97.3340748  40.4366320 104.2134481 100.2818912  48.7356018 116.8039022
  99.9819635  49.6381056 116.6954830  99.9369972  48.4688201 117.6560175
  93.7331394  45.1869814 112.8375727  92.8081890  45.0546029 113.0453419
  93.9815807  45.9664034 113.3345669  97.5032800  42.7296696 106.1219859
  97.3832425  43.1753747 106.9605339  96.8085388  43.0782014 105.5633397
  91.0940205  44.8303088 113.6719516  91.2232586  45.0837567 114.5858928
  90.4137656  45.4230796 113.3524171  95.2639692  55.5000338 109.7709990
  95.1863722  56.4508163 109.8498471  94.6601336  55.1546210 110.4284916
 103.2017866  43.2018169 106.9500193 104.1135722  43.4345556 106.7747891
 102.6927513  43.7855214 106.3875272 101.8087449  48.1843988 114.3413774
 101.1796311  48.3489702 113.6389842 101.4213111  48.5985597 115.1124738
 105.6876680  49.1198426 111.6958138 105.0027719  49.4997327 111.1455172
 105.7720530  49.7293752 112.4290086  97.3615410  47.9218396 111.6063860
  97.8253756  48.2006099 110.8168482  97.0972209  47.0201840 111.4236950
  94.2539491  47.4689877 114.5443623  94.8240849  47.8977146 113.9061107
  94.8447603  47.1872462 115.2427808  96.2984296  44.0441548 108.4153425
  97.0008340  44.4962592 108.8827351  95.9664925  43.4025367 109.0433318
  90.0409630  42.3025101 113.7170558  89.2508684  42.5582629 113.2410669
  90.5320878  43.1173439 113.8222599  91.9924376  42.6669680 110.6754035
  91.1955539  42.7788374 111.1937531  91.7649968  43.0056332 109.8094925
  97.8230043  49.1914383 118.6236550  97.8874476  49.6534791 119.4594721
  97.1140967  48.5611748 118.7518859  88.3247333  42.5555591 116.1485549
  88.5755372  43.4402601 116.4143125  88.8606882  42.3760193 115.3760641
  97.5378061  50.8582491 108.4915530  97.4023736  51.7034027 108.9200378
  98.0787874  51.0601769 107.7281464  90.9907458  48.3757929 109.0643455
  91.5031979  49.1701179 109.2149020  91.6430171  47.6784219 108.9977056
  92.8002343  51.4923685 111.1466208  92.9768972  52.4141650 110.9587192
  93.5959177  51.1782104 111.5760588  92.0854700  43.5388317 121.0228371
  91.9708215  42.6373574 121.3235470  91.2299217  43.7852014 120.6713188
  93.9233659  53.0101859 117.1476550  94.4741084  52.8818922 116.3753544
  93.0845135  53.3096748 116.7971443  88.9556375  46.7046583 109.8403026
  89.7931597  47.1143592 109.6236733  89.1334643  45.7646025 109.8103219
 100.8520807  44.3721664 105.5286858 100.3367431  45.1426269 105.7675246
 100.5798116  43.6986800 106.1519920  98.4367918  39.2171365 110.5872097
  97.5809515  38.8278215 110.4077736  98.8494870  39.2963325 109.7271882
  96.2109951  36.8356438 113.9929838  97.0762948  36.6399246 113.6335728
  96.2787460  36.6066789 114.9199195 105.8255081  47.1254019 107.4640032
 105.0484524  46.7865178 107.0195194 106.5046562  47.1306642 106.7894997
 100.6407111  42.2448756 107.3546640 100.3357246  42.5594905 108.2056783
 101.5937553  42.3230176 107.3973973  99.0853542  48.4038979 109.0039594
  98.5574904  47.6691739 108.6912831  98.5841045  49.1813656 108.7579562
 104.0646388  46.5988000 114.1206640 103.4070063  47.2887261 114.2086769
 104.8686788  46.9884432 114.4640626  93.8172270  39.0658646 111.3646205
  94.3916022  38.8433827 110.6319398  94.4043252  39.1347340 112.1174806
 102.8751847  44.9532372 112.1710582 103.3883729  45.5862364 112.6732291
 103.5253071  44.3533568 111.8053942  94.1441857  41.0963107 105.3842090
  93.3079169  41.4337793 105.7051365  94.0046627  40.9612086 104.4469227
  96.1194938  35.9399894 110.0921275  95.4659350  35.6248912 109.4677889
  96.0775412  35.3175635 110.8181098  97.2306143  46.2219190 102.0074567
  96.3233204  45.9908443 102.2065716  97.7277175  45.4256809 102.1948548
 100.1374221  54.9316697 104.9271253  99.4635920  55.2348394 105.5356211
 100.5240043  55.7345777 104.5776710  99.3532678  42.4281828 114.4168922
  98.4355239  42.6496775 114.2590610  99.7692822  42.5028139 113.5580630
 100.1367726  43.8273244 109.5471602 100.8839545  44.3394641 109.2378725
 100.4059315  43.5057296 110.4075996  98.4094376  46.3231784 106.5298557
  97.5005595  46.0390817 106.6271026  98.4389460  46.7430863 105.6701864
 103.6413643  49.9338374 110.2989724 103.1875971  49.0929284 110.3554915
 103.0107610  50.5699772 110.6364504 102.5846563  40.8630360 111.5290392
 101.8469320  40.3507746 111.8600634 102.8373337  40.4230742 110.7173669
 102.0846583  51.7714871 111.2339542 102.3769557  52.3319928 110.5151908
 102.5945203  52.0643432 111.9892702  88.9782546  44.0437299 110.5113759
  88.7806946  43.4506659 109.7864826  88.4229210  43.7389509 111.2289698
  96.9579270  43.9360405 112.6308352  97.0127880  42.9834241 112.5550829
  96.1470472  44.0919844 113.1149651  98.1070464  47.8640528 103.8686635
  97.6689894  47.1476387 103.4092273  98.8480905  48.0916643 103.3071727
  94.8971630  42.5537465 110.3898731  94.0839495  42.8531635 110.7963923
  95.3930624  42.1593154 111.1073213  97.0480208  52.5495222 112.3232996
  97.0056387  52.7756068 111.3941528  97.9642907  52.3158596 112.4718797
 106.2243579  46.1397725 109.9262954 106.0861477  46.3299321 108.9984143
 105.8679797  46.9017108 110.3831005  94.3885705  40.1255820 116.0059966
  95.0285084  39.9844579 115.3082929  93.5563235  39.8390334 115.6298568
  95.1646009  49.4258251 112.1194958  95.9586607  48.9308571 111.9177533
  94.4537701  48.8976114 111.7562664  99.9840853  51.8076346 116.4707326
 100.0377875  52.3767283 117.2385042  99.1155634  51.9778231 116.1061363
  91.4728772  43.5701332 108.1954711  90.5426360  43.5085788 108.4124673
  91.5686244  43.0477285 107.3991352  91.3914321  40.0956145 110.7832953
  91.6521138  41.0101479 110.6742113  92.2131493  39.6280588 110.9329566
  92.8639246  41.5093902 117.9531777  93.5362300  41.3011265 117.3044426
  92.0369033  41.3115988 117.5137010  98.9428953  45.9736608 118.0294258
  99.8721013  46.1247768 117.8563225  98.5219983  46.0620629 117.1742904
  97.7417285  49.9987273 115.7992795  97.6028370  49.6306057 116.6718734
  96.9531881  50.5134912 115.6276753  98.3365437  55.0996369 107.1418332
  98.5117192  54.6284412 107.9563955  97.6498225  55.7262135 107.3699593
  99.2922500  49.3768875 113.1881633  98.9572332  49.3369645 114.0839283
  98.7926445  48.7113591 112.7152043  93.2666744  44.7836505 118.7134214
  93.1286542  44.0516744 119.3145753  94.1771667  44.6945406 118.4318402
 102.2281691  46.7224910 103.4618693 101.6110862  45.9971738 103.3651746
 101.7598180  47.4834270 103.1185767  95.8949044  44.4956465 118.2017894
  96.6048663  43.8549657 118.1604512  95.8518353  44.7469360 119.1244075
  92.9026522  58.2485732 113.9158192  93.1423120  58.8804256 114.5937211
  92.0595718  57.8973772 114.2023551  94.0180237  40.9410334 102.5839997
  93.1409704  40.8199135 102.2202244  94.4937990  40.1496412 102.3318886
  85.5382377  45.7287494 112.6781504  86.2253417  45.4149224 112.0902520
  85.3830506  46.6328858 112.4048756  90.3417100  40.6177690 117.1066528
  90.2575288  40.0103360 116.3716938  89.5199806  41.1086709 117.1076024
  97.4154384  54.0564854 116.3199696  97.3424555  54.8619826 116.8319001
  96.9731777  54.2556820 115.4947718  97.2044163  53.2936624 109.8302518
  96.4211685  53.8358305 109.9240742  97.9036909  53.8110604 110.2296759
 100.5140813  39.1031254 112.4736723 101.0109513  38.3501216 112.1537793
  99.7427795  39.1395571 111.9079932  99.8753067  53.9551688 118.4757855
 100.5881039  54.5899153 118.4033756  99.3843096  54.0515554 117.6597857
 101.5970594  47.8602941 110.0475146 100.6626873  47.9804404 109.8779851
 101.7747263  46.9575408 109.7835156  97.0975782  41.2448637 112.2008408
  96.7273570  40.6919677 112.8889313  97.5934875  40.6406770 111.6483408
 104.9843146  43.7020260 110.5825181 105.4503598  44.5348252 110.5085483
 105.4350646  43.2365242 111.2870439  94.9264981  51.7046132 119.2963426
  95.6274440  52.3382615 119.4492820  94.4560096  52.0460863 118.5359065
 103.0519377  50.0464082 107.5811333 103.3279221  49.9320676 108.4905207
 102.1823875  49.6481567 107.5423506  99.6873441  54.2950433 111.2244146
  99.8695835  53.4772088 111.6871899 100.5106427  54.5118125 110.7869036
 100.0215606  53.2218618 108.4859195 100.5503373  52.7111072 107.8729357
 100.2843826  52.9061148 109.3504728  90.5232699  51.2382487 116.2294528
  91.1086136  50.4926175 116.3622433  90.3257537  51.5486444 117.1131192
  93.3771354  54.2733734 111.2456971  92.7081729  54.7579862 110.7621011
  93.2384224  54.5202955 112.1600349  85.1150354  43.8088087 114.9498971
  85.1534453  43.2751678 115.7436090  84.6090646  43.2823293 114.3309949
  97.5176623  56.3077478 117.8439629  98.0694931  56.4709099 118.6088714
  97.8582816  56.8981916 117.1719654  92.4941116  38.6552628 118.4461514
  92.5582442  39.5167459 118.0338911  92.4308236  38.0426629 117.7133872
  88.7458931  42.5352189 108.0252903  89.0412372  41.6262868 107.9719957
  87.8446967  42.5139929 107.7033905 100.6545010  54.2559453 114.8303311
 100.5296149  53.4549193 114.3214257 101.3124101  54.7505647 114.3417281
  92.2753178  40.6108186 114.0080451  91.5539764  41.2244154 113.8687925
  93.0646434  41.1465951 113.9297097 102.7179918  52.0568473 116.4582861
 101.7710254  51.9373825 116.3861188 103.0662691  51.1690972 116.5409123
  90.4746773  40.2166287 108.1492228  90.1459479  39.3363666 107.9667334
  90.8286143  40.1613956 109.0368617  99.7226352  51.8521190 112.6587214
  99.5751314  50.9237897 112.8394784 100.5479845  51.8741280 112.1744289
  93.5888596  40.5039257 108.5167706  93.9284668  41.0325178 107.7946314
  94.0360716  40.8419663 109.2926272 103.3260473  52.6749748 113.7452086
 104.2507021  52.4692610 113.6076537 103.1575777  52.4266150 114.6541428
  95.5756743  39.0013878 106.7160998  96.2965106  39.3795131 106.2124715
  94.9522047  39.7202755 106.8195976  99.7187866  39.7059027 107.6519331
  99.9351480  40.5883665 107.3508159  99.2381933  39.3145241 106.9224973
  94.4587087  42.6644741 114.2290075  94.3131668  42.9785044 115.1214357
  93.9812291  43.2829641 113.6760974  96.3183470  39.6547289 114.2770965
  96.3045039  38.7588382 113.9403263  97.0355898  39.6617952 114.9109251
 103.1155790  53.1935416 109.1014178 103.2892667  52.6281838 108.3488030
 103.6084681  53.9936311 108.9193668  88.9332749  45.2050085 117.1677737
  88.3886218  45.9809893 117.2998011  89.8112099  45.5520889 117.0096858
  95.7220366  38.5361669 109.5458535  95.8436277  37.6078315 109.7449423
  95.4322409  38.5500355 108.6336850 104.1030962  52.5102180 106.2011076
 104.7981867  53.1308873 106.4198391 104.4454112  51.6597531 106.4763454
  89.7198771  44.3319981 120.0607893  88.9780507  44.4802617 120.6472524
  89.3991516  44.5928247 119.1974643 106.0022385  49.9601886 107.7298407
 106.5273709  50.2989159 107.0047727 105.9144738  49.0248901 107.5461541
  97.6642434  53.8735959 119.8588283  97.9729560  53.6285106 120.7310983
  98.4617916  54.0782598 119.3707154  97.6863046  56.0273869 112.0893660
  97.2468036  55.5350248 112.7826517  98.4371163  55.4846837 111.8485735
  90.1655385  52.2185410 112.0918288  90.9913405  51.9189182 111.7116932
  89.8149437  51.4493032 112.5408077  95.1336918  51.5711878 114.1615962
  94.5116927  50.9082583 113.8618190  95.8041785  51.5973010 113.4789609
  88.3663990  50.1371736 113.0507222  87.5295898  49.7093911 112.8691223
  88.3387635  50.3304180 113.9878013  94.6950425  50.1215802 107.6374422
  94.8438545  50.8051266 106.9841095  95.5016869  50.1020892 108.1523878
  92.4503058  46.1480979 108.6435491  92.2049100  45.2443309 108.8415701
  92.6198973  46.1498130 107.7014969  91.7198706  41.8809337 106.1421653
  91.0267951  41.9553692 105.4861689  91.4750458  41.1169680 106.6643169
  98.1945831  52.6163932 105.1086170  97.6219798  53.2354119 104.6556641
  98.7678624  53.1663294 105.6426092 101.4143090  52.9001082 106.2394752
 102.3473764  52.8346644 106.4427627 101.3266303  53.7357349 105.7809285
 104.0431107  52.2166952 103.1998699 103.9644739  51.8826816 104.0934457
 104.8640774  52.7088720 103.1990172  98.5792629  43.9524745 102.4502222
  99.5251734  43.8230953 102.5190640  98.2006874  43.2139407 102.9271650
  96.7635546  41.8774721 102.3857107  95.8567002  41.5807834 102.4619821
  97.0411527  41.5804539 101.5191394  87.6813487  43.1981085 112.8356154
  87.3616271  42.3446393 112.5430528  87.1346915  43.4129663 113.5914121
  91.4593394  45.9143526 116.5525660  91.6779404  46.8460633 116.5713694
  91.8719168  45.5551500 117.3380464  98.3797612  36.4211611 108.5401349
  97.5698340  36.0758696 108.9156595  99.0682029  36.1119155 109.1288960
 100.3088160  35.4989658 110.1625645 100.8619199  35.9185111 110.8215668
 100.5458247  34.5725406 110.2048601  95.5334331  38.7361656 102.5269087
  96.3953495  39.0616555 102.7864904  95.7184675  37.9493152 102.0142152
  87.5501747  46.8183996 114.8049275  86.8565218  46.4037949 114.2919230
  88.2974738  46.8604533 114.2082694 103.6866967  37.6090183 109.6704310
 103.1065636  38.2674987 109.2882362 103.4202900  36.7867527 109.2591727
  89.4638489  46.7502250 112.6815290  89.4409177  46.8489937 111.7297173
  89.7739126  47.5967401 113.0032456  92.1225867  48.8078405 116.7961905
  93.0769121  48.7762347 116.7291836  91.9238391  48.3469029 117.6112131
  92.7125249  47.3779521 119.3632702  93.5318138  47.8723600 119.3867540
  92.9862057  46.4611489 119.3350270 102.4691845  39.7690273 108.7260658
 101.5817700  40.0539924 108.5080853 102.8845834  39.6084037 107.8787935
  90.4776096  54.3498024 113.8132102  90.3430564  53.5898425 113.2470101
  90.0608158  55.0738924 113.3460891 101.6135059  49.5334948 102.8208678
 102.3170909  49.7384950 103.4366333 100.8897708  50.1011710 103.0857761
 102.4432869  45.2844809 108.9410948 102.3868071  45.7413361 108.1018580
 102.9961212  44.5235494 108.7633791  93.6345222  55.2467341 114.0250545
  93.5177606  56.1912774 113.9229235  92.8137668  54.9440903 114.4136344
 103.5221756  49.9717477 104.8707138 104.3567360  49.5398676 104.6884613
 103.3606099  49.7999491 105.7984032 103.1767648  46.4749590 106.2363477
 103.1216452  46.3093862 105.2951921 102.5513704  47.1825623 106.3925667
  87.9660163  41.7117655 120.0624899  88.6119027  41.2016609 120.5512125
  87.7577315  42.4486336 120.6368325  96.4863774  35.9757699 105.8148796
  96.4742444  36.9199539 105.9717066  97.3787196  35.7927845 105.5208257
  94.6599736  55.8995603 117.2406474  95.5626983  55.9319213 117.5572969
  94.4337106  54.9696054 117.2552809  96.4153338  54.6526590 113.9016552
  95.4648969  54.6528451 113.7880924  96.7185824  53.9059324 113.3852587
 104.8182553  62.2950033 110.8920730 104.2547418  62.2039970 110.1237018
 104.7034948  61.4749937 111.3723223 102.3646985  63.7901224 113.7304951
 103.1568277  63.4492049 113.3151250 102.6043635  63.8996199 114.6507104
 110.3982112  65.9621000 106.2035195 109.7470092  66.5475081 105.8169209
 111.1926475  66.4927195 106.2630233 104.3237739  63.0510138 106.6022329
 105.0968615  62.5039125 106.4635205 104.6763138  63.9154387 106.8136791
 106.6604017  59.2102804 104.2340779 106.9129538  58.6884325 103.4724242
 105.7228576  59.0468949 104.3367463 111.7047300  58.2138582 112.0415523
 112.4910389  57.7958005 111.6905940 111.9686004  59.1184674 112.2097171
 111.8757377  63.6511432 106.7404179 111.2403210  63.7246059 107.4525084
 111.5454784  64.2405031 106.0623259 106.3800306  61.1130910 106.4365154
 106.2636564  60.4375813 107.1046239 106.4902566  60.6263284 105.6197307
 108.7231847  60.5741057 110.1411844 108.3590054  60.0471678 110.8524765
 109.5798963  60.1839526 109.9678329 108.3637334  55.6030956 105.1373192
 108.5311736  56.4711193 105.5043663 108.1734503  55.7658238 104.2134481
 104.5725148  60.5161732 112.8375727 103.6475645  60.3837946 113.0453419
 104.8209562  61.2955951 113.3345669 108.3426555  58.0588614 106.1219859
 108.2226180  58.5045665 106.9605339 107.6479143  58.4073932 105.5633397
 101.9333959  60.1595006 113.6719516 102.0626341  60.4129485 114.5858928
 101.2531411  60.7522714 113.3524171 114.0411621  58.5310087 106.9500193
 114.9529477  58.7637474 106.7747891 113.5321268  59.1147131 106.3875272
 108.2009165  63.2510314 111.6063860 108.6647510  63.5298017 110.8168482
 107.9365963  62.3493758 111.4236950 107.1378051  59.3733466 108.4153425
 107.8402094  59.8254510 108.8827351 106.8058679  58.7317285 109.0433318
 100.8803385  57.6317019 113.7170558 100.0902439  57.8874547 113.2410669
 101.3714632  58.4465356 113.8222599 102.8318130  57.9961598 110.6754035
 102.0349294  58.1080292 111.1937531 102.6043722  58.3348250 109.8094925
  99.1641088  57.8847509 116.1485549  99.4149126  58.7694519 116.4143125
  99.7000636  57.7052111 115.3760641 108.3771816  66.1874409 108.4915530
 108.2417490  67.0325944 108.9200378 108.9181628  66.3893686 107.7281464
 101.8301213  63.7049847 109.0643455 102.3425734  64.4993097 109.2149020
 102.4823926  63.0076137 108.9977056 103.6396098  66.8215603 111.1466208
 103.8162726  67.7433568 110.9587192 104.4352931  66.5074022 111.5760588
  99.7950130  62.0338501 109.8403026 100.6325352  62.4435509 109.6236733
  99.9728397  61.0937943 109.8103219 111.6914562  59.7013582 105.5286858
 111.1761185  60.4718186 105.7675246 111.4191870  59.0278718 106.1519920
 109.2761673  54.5463282 110.5872097 108.4203269  54.1570133 110.4077736
 109.6888625  54.6255243 109.7271882 107.0503705  52.1648355 113.9929838
 107.9156702  51.9691164 113.6335728 107.1181214  51.9358707 114.9199195
 116.6648836  62.4545936 107.4640032 115.8878279  62.1157096 107.0195194
 117.3440317  62.4598559 106.7894997 111.4800865  57.5740674 107.3546640
 111.1751001  57.8886823 108.2056783 112.4331307  57.6522094 107.3973973
 109.9247297  63.7330897 109.0039594 109.3968658  62.9983657 108.6912831
 109.4234800  64.5105573 108.7579562 104.6566024  54.3950563 111.3646205
 105.2309776  54.1725745 110.6319398 105.2437007  54.4639258 112.1174806
 104.9835612  56.4255024 105.3842090 104.1472924  56.7629711 105.7051365
 104.8440381  56.2904004 104.4469227 106.9588692  51.2691812 110.0921275
 106.3053105  50.9540829 109.4677889 106.9169166  50.6467553 110.8181098
 108.0699897  61.5511107 102.0074567 107.1626959  61.3200361 102.2065716
 108.5670929  60.7548727 102.1948548 110.9767976  70.2608614 104.9271253
 110.3029675  70.5640311 105.5356211 111.3633798  71.0637695 104.5776710
 110.1926433  57.7573746 114.4168922 109.2748994  57.9788693 114.2590610
 110.6086576  57.8320056 113.5580630 110.9761480  59.1565161 109.5471602
 111.7233299  59.6686559 109.2378725 111.2453070  58.8349214 110.4075996
 109.2488130  61.6523702 106.5298557 108.3399350  61.3682735 106.6271026
 109.2783214  62.0722781 105.6701864 113.4240317  56.1922278 111.5290392
 112.6863074  55.6799664 111.8600634 113.6767091  55.7522659 110.7173669
  99.8176301  59.3729216 110.5113759  99.6200701  58.7798577 109.7864826
  99.2622965  59.0681426 111.2289698 107.7973025  59.2652323 112.6308352
 107.8521634  58.3126159 112.5550829 106.9864227  59.4211762 113.1149651
 108.9464218  63.1932446 103.8686635 108.5083648  62.4768305 103.4092273
 109.6874659  63.4208561 103.3071727 105.7365384  57.8829382 110.3898731
 104.9233250  58.1823553 110.7963923 106.2324379  57.4885071 111.1073213
 105.2279459  55.4547738 116.0059966 105.8678839  55.3136497 115.3082929
 104.3956990  55.1682251 115.6298568 106.0039763  64.7550168 112.1194958
 106.7980362  64.2600489 111.9177533 105.2931455  64.2268032 111.7562664
 102.3122527  58.8993250 108.1954711 101.3820115  58.8377706 108.4124673
 102.4079999  58.3769203 107.3991352 102.2308076  55.4248063 110.7832953
 102.4914893  56.3393396 110.6742113 103.0525248  54.9572506 110.9329566
 103.7033001  56.8385820 117.9531777 104.3756054  56.6303182 117.3044426
 102.8762787  56.6407906 117.5137010 109.1759191  70.4288287 107.1418332
 109.3510947  69.9576330 107.9563955 108.4891979  71.0554053 107.3699593
 113.0675446  62.0516827 103.4618693 112.4504617  61.3263656 103.3651746
 112.5991934  62.8126188 103.1185767 104.8573992  56.2702252 102.5839997
 103.9803458  56.1491053 102.2202244 105.3331745  55.4788330 102.3318886
  96.3776132  61.0579411 112.6781504  97.0647172  60.7441142 112.0902520
  96.2224261  61.9620776 112.4048756 101.1810854  55.9469608 117.1066528
 101.0969043  55.3395278 116.3716938 100.3593560  56.4378626 117.1076024
 111.3534568  54.4323172 112.4736723 111.8503268  53.6793134 112.1537793
 110.5821549  54.4687488 111.9079932 112.4364349  63.1894859 110.0475146
 111.5020627  63.3096321 109.8779851 112.6141017  62.2867326 109.7835156
 107.9369537  56.5740555 112.2008408 107.5667324  56.0211595 112.8889313
 108.4328629  55.9698688 111.6483408 115.8236900  59.0312178 110.5825181
 116.2897352  59.8640170 110.5085483 116.2744401  58.5657160 111.2870439
 113.8913131  65.3755999 107.5811333 114.1672975  65.2612594 108.4905207
 113.0217630  64.9773484 107.5423506  95.9544108  59.1380005 114.9498971
  95.9928208  58.6043596 115.7436090  95.4484401  58.6115210 114.3309949
 103.3334870  53.9844545 118.4461514 103.3976197  54.8459376 118.0338911
 103.2701991  53.3718547 117.7133872  99.5852686  57.8644107 108.0252903
  99.8806127  56.9554785 107.9719957  98.6840721  57.8431846 107.7033905
 103.1146933  55.9400104 114.0080451 102.3933518  56.5536071 113.8687925
 103.9040188  56.4757868 113.9297097 101.3140527  55.5458205 108.1492228
 100.9853233  54.6655584 107.9667334 101.6679898  55.4905873 109.0368617
 104.4282350  55.8331174 108.5167706 104.7678423  56.3617096 107.7946314
 104.8754471  56.1711581 109.2926272 106.4150498  54.3305796 106.7160998
 107.1358860  54.7087049 106.2124715 105.7915802  55.0494673 106.8195976
 110.5581620  55.0350945 107.6519331 110.7745235  55.9175583 107.3508159
 110.0775688  54.6437158 106.9224973 105.2980842  57.9936658 114.2290075
 105.1525423  58.3076961 115.1214357 104.8206045  58.6121559 113.6760974
 107.1577225  54.9839206 114.2770965 107.1438793  54.0880300 113.9403263
 107.8749653  54.9909870 114.9109251  99.7726504  60.5342003 117.1677737
  99.2279972  61.3101811 117.2998011 100.6505854  60.8812807 117.0096858
 106.5614121  53.8653586 109.5458535 106.6830032  52.9370233 109.7449423
 106.2716163  53.8792272 108.6336850 114.9424717  67.8394098 106.2011076
 115.6375621  68.4600791 106.4198391 115.2847867  66.9889449 106.4763454
 116.8416140  65.2893803 107.7298407 117.3667464  65.6281076 107.0047727
 116.7538492  64.3540819 107.5461541 101.0049140  67.5477328 112.0918288
 101.8307159  67.2481099 111.7116932 100.6543191  66.7784950 112.5408077
  99.2057745  65.4663654 113.0507222  98.3689653  65.0385828 112.8691223
  99.1781390  65.6596097 113.9878013 105.5344180  65.4507719 107.6374422
 105.6832300  66.1343184 106.9841095 106.3410623  65.4312809 108.1523878
 103.2896813  61.4772897 108.6435491 103.0442854  60.5735227 108.8415701
 103.4592727  61.4790047 107.7014969 102.5592460  57.2101254 106.1421653
 101.8661705  57.2845609 105.4861689 102.3144212  56.4461598 106.6643169
 109.0339585  67.9455850 105.1086170 108.4613552  68.5646037 104.6556641
 109.6072379  68.4955211 105.6426092 112.2536845  68.2293000 106.2394752
 113.1867518  68.1638561 106.4427627 112.1660058  69.0649267 105.7809285
 114.8824862  67.5458870 103.1998699 114.8038493  67.2118734 104.0934457
 115.7034528  68.0380638 103.1990172 109.4186384  59.2816662 102.4502222
 110.3645488  59.1522870 102.5190640 109.0400629  58.5431324 102.9271650
 107.6029301  57.2066639 102.3857107 106.6960756  56.9099751 102.4619821
 107.8805282  56.9096457 101.5191394  98.5207241  58.5273002 112.8356154
  98.2010025  57.6738310 112.5430528  97.9740669  58.7421580 113.5914121
 109.2191366  51.7503528 108.5401349 108.4092095  51.4050613 108.9156595
 109.9075783  51.4411072 109.1288960 111.1481915  50.8281575 110.1625645
 111.7012953  51.2477029 110.8215668 111.3852001  49.9017323 110.2048601
 106.3728085  54.0653574 102.5269087 107.2347249  54.3908472 102.7864904
 106.5578430  53.2785070 102.0142152  98.3895501  62.1475914 114.8049275
  97.6958973  61.7329866 114.2919230  99.1368492  62.1896450 114.2082694
 114.5260722  52.9382100 109.6704310 113.9459391  53.5966904 109.2882362
 114.2596655  52.1159445 109.2591727 100.3032244  62.0794167 112.6815290
 100.2802932  62.1781855 111.7297173 100.6132880  62.9259318 113.0032456
 113.3085600  55.0982191 108.7260658 112.4211455  55.3831841 108.5080853
 113.7239589  54.9375954 107.8787935 112.4528813  64.8626865 102.8208678
 113.1564663  65.0676868 103.4366333 111.7291462  65.4303627 103.0857761
 113.2826624  60.6136727 108.9410948 113.2261825  61.0705278 108.1018580
 113.8354966  59.8527411 108.7633791 114.3615511  65.3009395 104.8707138
 115.1961115  64.8690593 104.6884613 114.1999854  65.1291408 105.7984032
 114.0161403  61.8041508 106.2363477 113.9610207  61.6385779 105.2951921
 113.3907458  62.5117541 106.3925667 107.3257528  51.3049617 105.8148796
 107.3136198  52.2491457 105.9717066 108.2180950  51.1219762 105.5208257
 115.6967746  71.5994169 102.5839997 114.8197213  71.4782970 102.2202244
 116.1725499  70.8080248 102.3318886 118.4423055  72.5358556 102.3857107
 117.5354511  72.2391669 102.4619821 118.7199036  72.2388375 101.5191394
 117.2121840  69.3945492 102.5269087 118.0741004  69.7200390 102.7864904
 117.3972184  68.6076988 102.0142152 118.1651283  66.6341535 105.8148796
 118.1529953  67.5783375 105.9717066 119.0574705  66.4511680 105.5208257
  73.5852184   1.8478625  96.4955297  73.5076214   2.7986450  96.5743777
  72.9813828   1.5024498  97.1530223  71.2239014   4.5964019 100.6403499
  71.4635612   5.2282543 101.3182517  70.3808211   4.2452059 100.9268858
  75.8389115   2.6555765 104.5684936  76.3907423   2.8187387 105.3334021
  76.1795308   3.2460203 103.8964961  68.7988588   0.6976312 100.5377409
  68.6643056  -0.0623288  99.9715407  68.3820650   1.4217211 100.0706198
  71.9557714   1.5945629 100.7495852  71.8390098   2.5391061 100.6474542
  71.1350160   1.2919190 101.1381651  72.9812228   2.2473890 103.9651780
  73.8839475   2.2797501 104.2818275  72.7549598   1.3174341 103.9798116
  83.1395046   8.6428320  97.6166037  82.5759911   8.5518257  96.8482325
  83.0247441   7.8228224  98.0968529  80.6859478  10.1379511 100.4550257
  81.4780769   9.7970336 100.0396557  80.9256128  10.2474487 101.3752411
  88.7194604  12.3099288  92.9280502  88.0682584  12.8953368  92.5414516
  89.5138967  12.8405483  92.9875539  82.6450231   9.3988425  93.3267636
  83.4181107   8.8517412  93.1880512  82.9975630  10.2632674  93.5382097
  84.4835274  10.7264807 106.5334535  84.1925140  11.6310438 106.4181202
  85.1192258  10.7681335 107.2478605  85.4091481   8.1041656 103.1235895
  86.0055053   7.8797678 102.4092858  85.4666452   7.3626401 103.7261343
  90.1969869   9.9989720  93.4649486  89.5615702  10.0724346  94.1770391
  89.8667276  10.5883318  92.7868565  84.7012798   7.4609197  93.1610461
  84.5849056   6.7854100  93.8291545  84.8115058   6.9741571  92.3442614
  89.4425159  10.4126223 103.5284329  89.1425882  11.3151261 103.4200136
  89.0976219  10.1458406 104.3805482  82.8937641   6.8640019  99.5621034
  81.9688137   6.7316233  99.7698725  83.1422054   7.6434239 100.0590976
  80.2546452   6.5073293 100.3964823  80.3838833   6.7607772 101.3104234
  79.5743903   7.1001001 100.0769478  84.4245939  17.1770543  96.4955297
  84.3469969  18.1278368  96.5743777  83.8207583  16.8316415  97.1530223
  90.9693695   9.8614193 101.0659081  90.3402558  10.0259907 100.3635149
  90.5819357  10.2755802 101.8370045  94.8482927  10.7968631  98.4203445
  94.1633965  11.1767532  97.8700478  94.9326776  11.4063957  99.1535393
  86.5221657   9.5988601  98.3309166  86.9860003   9.8776304  97.5413789
  86.2578455   8.6972045  98.1482257  83.4145738   9.1460082 101.2688929
  83.9847095   9.5747351 100.6306414  84.0053850   8.8642667 101.9673115
  79.2015877   3.9795306 100.4415865  78.4114931   4.2352834  99.9655975
  79.6927125   4.7943644 100.5467905  81.1530623   4.3439885  97.3999342
  80.3561786   4.4558579  97.9182837  80.9256215   4.6826537  96.5340232
  86.9836290  10.8684588 105.3481856  87.0480723  11.3304996 106.1840028
  86.2747214  10.2381953 105.4764166  77.4853580   4.2325796 102.8730856
  77.7361619   5.1172806 103.1388432  78.0213129   4.0530398 102.1005947
  86.6984308  12.5352696  95.2160837  86.5629983  13.3804232  95.6445684
  87.2394120  12.7371973  94.4526770  80.1513705  10.0528134  95.7888762
  80.6638226  10.8471384  95.9394326  80.8036418   9.3554424  95.7222363
  81.9608590  13.1693890  97.8711515  82.1375218  14.0911855  97.6832499
  82.7565423  12.8552309  98.3005895  81.2460946   5.2158522 107.7473678
  81.1314462   4.3143779 108.0480777  80.3905464   5.4622219 107.3958495
  83.0839905  14.6872064 103.8721857  83.6347331  14.5589127 103.0998851
  82.2451381  14.9866953 103.5216750  78.1162622   8.3816788  96.5648332
  78.9537844   8.7913797  96.3482040  78.2940890   7.4416230  96.5348526
  88.2459789  10.0809184  95.7284900  87.7181151   9.3461944  95.4158138
  87.7447292  10.8583861  95.4824869  86.3912389   7.8989395  88.7319873
  85.4839451   7.6678648  88.9311022  86.8883421   7.1027014  88.9193855
  89.2980468  16.6086902  91.6516559  88.6242167  16.9118598  92.2601517
  89.6846290  17.4115982  91.3022017  87.5700623   8.0001989  93.2543863
  86.6611842   7.7161022  93.3516333  87.5995707   8.4201068  92.3947170
  92.8019890  11.6108579  97.0235031  92.3482217  10.7699489  97.0800221
  92.1713857  12.2469977  97.3609811  91.2452829  13.4485076  97.9584849
  91.5375804  14.0090133  97.2397215  91.7551450  13.7413637  98.7138008
  78.1388793   5.7207503  97.2359066  77.9413193   5.1276864  96.5110132
  77.5835457   5.4159714  97.9535004  87.2676711   9.5410733  90.5931942
  86.8296140   8.8246592  90.1337579  88.0087151   9.7686848  90.0317033
  86.2086455  14.2265427  99.0478302  86.1662633  14.4526273  98.1186834
  87.1249153  13.9928801  99.1964103  84.3252255  11.1028456  98.8440265
  85.1192854  10.6078776  98.6422840  83.6143948  10.5746319  98.4807971
  89.1447100  13.4846551 103.1952633  89.1984122  14.0537488 103.9630349
  88.2761881  13.6548436 102.8306670  80.6335019   5.2471537  94.9200018
  79.7032607   5.1855993  95.1369980  80.7292491   4.7247490  94.1236659
  88.1035200   7.6506813 104.7539564  89.0327260   7.8017973 104.5808532
  87.6826230   7.7390834 103.8988211  86.9023531  11.6757478 102.5238102
  86.7634617  11.3076262 103.3964040  86.1138128  12.1905117 102.3522060
  87.4971683  16.7766574  93.8663639  87.6723439  16.3054617  94.6809261
  86.8104471  17.4032340  94.0944899  88.4528747  11.0539080  99.9126940
  88.1178579  11.0139850 100.8084590  87.9532692  10.3883796  99.4397350
  82.4272990   6.4606710 105.4379521  82.2892788   5.7286949 106.0391060
  83.3377914   6.3715610 105.1563709  91.3887938   8.3995115  90.1864000
  90.7717109   7.6741943  90.0897052  90.9204427   9.1604475  89.8431074
  82.0632769  19.9255937 100.6403499  82.3029367  20.5574461 101.3182517
  81.2201965  19.5743977 100.9268858  74.6988624   7.4057699  99.4026811
  75.3859664   7.0919429  98.8147826  74.5436753   8.3099063  99.1294062
  86.5760631  15.7335059 103.0445003  86.5030802  16.5390031 103.5564307
  86.1338024  15.9327025 102.2193024  86.3650410  14.9706829  96.5547824
  85.5817932  15.5128510  96.6486049  87.0643155  15.4880809  96.9542066
  89.0359314  15.6321893 105.2003161  89.7487286  16.2669358 105.1279063
  88.5449343  15.7285759 104.3843163  90.7576841   9.5373146  96.7720453
  89.8233120   9.6574608  96.6025157  90.9353509   8.6345613  96.5080463
  84.0871228  13.3816337 106.0208732  84.7880687  14.0152820 106.1738126
  83.6166343  13.7231068 105.2604372  92.2125623  11.7234287  94.3056639
  92.4885467  11.6090881  95.2150513  91.3430122  11.3251771  94.2668812
  88.8479687  15.9720637  97.9489453  89.0302082  15.1542293  98.4117205
  89.6712673  16.1888330  97.5114343  89.1821853  14.8988823  95.2104501
  89.7109619  14.3881277  94.5974664  89.4450072  14.5831353  96.0750034
  79.6838946  12.9152692 102.9539835  80.2692382  12.1696380 103.0867739
  79.4863784  13.2256649 103.8376499  82.5377601  15.9503939  97.9702277
  81.8687976  16.4350067  97.4866317  82.3990471  16.1973160  98.8845656
  74.2756600   5.4858292 101.6744278  74.3140700   4.9521883 102.4681396
  73.7696893   4.9593498 101.0555255  86.6782869  17.9847683 104.5684936
  87.2301177  18.1479304 105.3334021  87.0189063  18.5752121 103.8964961
  77.9065178   4.2122394  94.7498209  78.2018619   3.3033073  94.6965263
  77.0053214   4.1910134  94.4279212  89.8151257  15.9329658 101.5548618
  89.6902396  15.1319398 101.0459563  90.4730348  16.4275852 101.0662588
  91.8786165  13.7338678 103.1828168  90.9316501  13.6144030 103.1106495
  92.2268938  12.8461176 103.2654429  88.8832598  13.5291395  99.3832520
  88.7357561  12.6008102  99.5640090  89.7086092  13.5511485  98.8989595
  92.4866720  14.3519953 100.4697393  93.4113268  14.1462815 100.3321844
  92.3182024  14.1036354 101.3786734  92.2762036  14.8705621  95.8259484
  92.4498914  14.3052043  95.0733337  92.7690928  15.6706516  95.6438974
  78.0938996   6.8820290 103.8923043  77.5492464   7.6580098 104.0243318
  78.9718346   7.2291094 103.7342165  93.2637209  14.1872385  92.9256383
  93.9588114  14.8079078  93.1443697  93.6060359  13.3367736  93.2008761
  78.8805018   6.0090186 106.7853200  78.1386754   6.1572821 107.3717830
  78.5597762   6.2698452 105.9219949  95.1628632  11.6372091  94.4543713
  95.6879956  11.9759363  93.7293033  95.0750985  10.7019106  94.2706848
  86.8248681  15.5506164 106.5833590  87.1335807  15.3055311 107.4556290
  87.6224163  15.7552803 106.0952460  86.8469293  17.7044074  98.8138967
  86.4074283  17.2120453  99.5071823  87.5977410  17.1617042  98.5731042
  79.3261632  13.8955615  98.8163595  80.1519652  13.5959387  98.4362238
  78.9755684  13.1263237  99.2653383  84.2943165  13.2482083 100.8861268
  83.6723174  12.5852788 100.5863496  84.9648032  13.2743215 100.2034916
  77.5270237  11.8141941  99.7752528  76.6902145  11.3864116  99.5936530
  77.4993882  12.0074385 100.7123319  83.8556672  11.7986006  94.3619729
  84.0044792  12.4821471  93.7086402  84.6623115  11.7791096  94.8769185
  81.6109305   7.8251184  95.3680798  81.3655347   6.9213514  95.5661008
  81.7805219   7.8268335  94.4260276  87.3552077  14.2934137  91.8331476
  86.7826044  14.9124324  91.3801948  87.9284871  14.8433499  92.3671398
  90.5749337  14.5771287  92.9640059  91.5080010  14.5116849  93.1672934
  90.4872550  15.4127554  92.5054591  93.2037354  13.8937157  89.9244006
  93.1250985  13.5597021  90.8179764  94.0247021  14.3858925  89.9235478
  76.8419733   4.8751289  99.5601460  76.5222518   4.0216598  99.2675834
  76.2953162   5.0899868 100.3159428  80.6199641   7.5913730 103.2770967
  80.8385651   8.5230838 103.2959001  81.0325415   7.2321705 104.0625771
  76.7107993   8.4954201 101.5294582  76.0171465   8.0808154 101.0164536
  77.4580984   8.5374737 100.9328001  78.6244736   8.4272455  99.4060597
  78.6015424   8.5260142  98.4542480  78.9345372   9.2737605  99.7277763
  81.2832114  10.4848610 103.5207211  82.2375367  10.4532552 103.4537143
  81.0844637  10.0239233 104.3357437  81.8731496   9.0549726 106.0878009
  82.6924385   9.5493804 106.1112846  82.1468304   8.1381694 106.0595576
  79.6382343  16.0268229 100.5377409  79.5036811  15.2668630  99.9715407
  79.2214405  16.7509129 100.0706198  90.7741306  11.2105153  89.5453984
  91.4777156  11.4155155  90.1611640  90.0503954  11.7781915  89.8103068
  82.7951468  16.9237546 100.7495852  82.6783853  17.8682979 100.6474542
  81.9743915  16.6211108 101.1381651  92.6828003  11.6487682  91.5952444
  93.5173607  11.2168880  91.4129919  92.5212346  11.4769696  92.5229339
  83.8205983  17.5765808 103.9651780  84.7233229  17.6089418 104.2818275
  83.5943353  16.6466259 103.9798116  85.5759585  16.3296795 100.6261859
  84.6255216  16.3298656 100.5126231  85.8792071  15.5829529 100.1097893
 101.3112278  22.1657333 101.6907621 101.9490688  22.0464080 100.9870961
 101.1933121  23.1138177 101.7495573  98.1201984  22.1184761 101.6269146
  97.7820496  22.0025826 100.7389681  98.9891753  21.7175926 101.6070152
  93.9788800  23.9720238  97.6166037  93.4153665  23.8810175  96.8482325
  93.8641195  23.1520142  98.0968529  91.5253232  25.4671429 100.4550257
  92.3174524  25.1262254 100.0396557  91.7649882  25.5766404 101.3752411
  99.5588359  27.6391205  92.9280502  98.9076339  28.2245286  92.5414516
 100.3532722  28.1697400  92.9875539  93.4843986  24.7280342  93.3267636
  94.2574862  24.1809330  93.1880512  93.8369385  25.5924592  93.5382097
  95.3229029  26.0556725 106.5334535  95.0318895  26.9602356 106.4181202
  95.9586013  26.0973252 107.2478605  96.2485235  23.4333573 103.1235895
  96.8448808  23.2089596 102.4092858  96.3060207  22.6918319 103.7261343
  95.8210264  20.8873009  90.9586086  96.0735784  20.3654530  90.1969549
  94.8834823  20.7239154  91.0612770 100.8653547  19.8908787  98.7660829
 101.6516636  19.4728210  98.4151246 101.1292251  20.7954879  98.9342478
 101.0363624  25.3281637  93.4649486 100.4009457  25.4016264  94.1770391
 100.7061030  25.9175236  92.7868565  95.5406553  22.7901115  93.1610461
  95.4242811  22.1146018  93.8291545  95.6508812  22.3033488  92.3442614
  97.8838093  22.2511262  96.8657150  97.5196301  21.7241883  97.5770072
  98.7405209  21.8609731  96.6923636  97.5243580  17.2801161  91.8618499
  97.6917983  18.1481398  92.2288970  97.3340750  17.4428443  90.9379788
 100.2818914  25.7418140 103.5284329  99.9819637  26.6443179 103.4200136
  99.9369973  25.4750323 104.3805482  93.7331395  22.1931937  99.5621034
  92.8081892  22.0608151  99.7698725  93.9815808  22.9726156 100.0590976
  97.5032801  19.7358819  92.8465166  97.3832427  20.1815870  93.6850646
  96.8085390  20.0844136  92.2878704  91.0940206  21.8365211 100.3964823
  91.2232587  22.0899690 101.3104234  90.4137657  22.4292919 100.0769478
  95.2639693  32.5062461  96.4955297  95.1863723  33.4570286  96.5743777
  94.6601337  32.1608333  97.1530223 103.2017867  20.2080292  93.6745500
 104.1135724  20.4407679  93.4993197 102.6927515  20.7917336  93.1120578
 101.8087450  25.1906110 101.0659081 101.1796312  25.3551825 100.3635149
 101.4213112  25.6047720 101.8370045 105.6876682  26.1260548  98.4203445
 105.0027720  26.5059450  97.8700478 105.7720531  26.7355875  99.1535393
  97.3615412  24.9280519  98.3309166  97.8253757  25.2068222  97.5413789
  97.0972210  24.0263963  98.1482257  94.2539493  24.4752000 101.2688929
  94.8240850  24.9039268 100.6306414  94.8447605  24.1934585 101.9673115
  96.2984298  21.0503671  95.1398731  97.0008341  21.5024715  95.6072658
  95.9664926  20.4087490  95.7678624  90.0409632  19.3087224 100.4415865
  89.2508686  19.5644752  99.9655975  90.5320879  20.1235561 100.5467905
  91.9924377  19.6731803  97.3999342  91.1955540  19.7850497  97.9182837
  91.7649969  20.0118455  96.5340232  97.8230045  26.1976506 105.3481856
  97.8874477  26.6596913 106.1840028  97.1140969  25.5673871 105.4764166
  88.3247335  19.5617714 102.8730856  88.5755373  20.4464724 103.1388432
  88.8606883  19.3822316 102.1005947  97.5378062  27.8644614  95.2160837
  97.4023737  28.7096149  95.6445684  98.0787875  28.0663891  94.4526770
  90.9907460  25.3820052  95.7888762  91.5031980  26.1763302  95.9394326
  91.6430173  24.6846342  95.7222363  92.8002344  28.4985808  97.8711515
  92.9768973  29.4203773  97.6832499  93.5959178  28.1844227  98.3005895
  92.0854701  20.5450440 107.7473678  91.9708216  19.6435697 108.0480777
  91.2299219  20.7914136 107.3958495  93.9233660  30.0163982 103.8721857
  94.4741085  29.8881045 103.0998851  93.0845136  30.3158871 103.5216750
  88.9556377  23.7108706  96.5648332  89.7931599  24.1205714  96.3482040
  89.1334644  22.7708148  96.5348526 100.8520809  21.3783786  92.2532165
 100.3367432  22.1488391  92.4920553 100.5798117  20.7048923  92.8765227
  98.4367920  16.2233487  97.3117403  97.5809516  15.8340338  97.1323042
  98.8494871  16.3025448  96.4517189  96.2109952  13.8418560 100.7175145
  97.0762949  13.6461369 100.3581034  96.2787461  13.6128912 101.6444502
 105.8255083  24.1316141  94.1885339 105.0484526  23.7927301  93.7440501
 106.5046564  24.1368764  93.5140304 100.6407112  19.2510879  94.0791946
 100.3357247  19.5657028  94.9302089 101.5937554  19.3292298  94.1219279
  99.0853544  25.4101102  95.7284900  98.5574905  24.6753861  95.4158138
  98.5841046  26.1875778  95.4824869 104.0646390  23.6050122 100.8451947
 103.4070064  24.2949384 100.9332075 104.8686789  23.9946554 101.1885933
  93.8172271  16.0720768  98.0891512  94.3916023  15.8495950  97.3564705
  94.4043254  16.1409463  98.8420113 102.8751848  21.9594495  98.8955888
 103.3883730  22.5924487  99.3977598 103.5253072  21.3595691  98.5299248
  94.1441858  18.1025229  92.1087397  93.3079171  18.4399916  92.4296672
  94.0046628  17.9674209  91.1714534  96.1194939  12.9462017  96.8166581
  95.4659351  12.6311034  96.1923196  96.0775413  12.3237758  97.5426404
  97.2306144  23.2281312  88.7319873  96.3233206  22.9970566  88.9311022
  97.7277176  22.4318931  88.9193855 100.1374223  31.9378819  91.6516559
  99.4635921  32.2410516  92.2601517 100.5240045  32.7407900  91.3022017
  99.3532679  19.4343951 101.1414229  98.4355241  19.6558898 100.9835917
  99.7692823  19.5090261 100.2825936 100.1367727  20.8335366  96.2716909
 100.8839546  21.3456764  95.9624031 100.4059317  20.5119419  97.1321303
  98.4094377  23.3293907  93.2543863  97.5005597  23.0452940  93.3516333
  98.4389461  23.7492986  92.3947170 103.6413645  26.9400497  97.0235031
 103.1875972  26.0991406  97.0800221 103.0107611  27.5761895  97.3609811
 102.5846564  17.8692483  98.2535698 101.8469321  17.3569869  98.5845941
 102.8373338  17.4292864  97.4418975 102.0846584  28.7776993  97.9584849
 102.3769558  29.3382050  97.2397215 102.5945204  29.0705554  98.7138008
  88.9782548  21.0499421  97.2359066  88.7806947  20.4568782  96.5110132
  88.4229212  20.7451631  97.9535004  96.9579271  20.9422528  99.3553659
  97.0127881  19.9896364  99.2796135  96.1470473  21.0981967  99.8394957
  98.1070465  24.8702651  90.5931942  97.6689895  24.1538510  90.1337579
  98.8480906  25.0978766  90.0317033  94.8971631  19.5599587  97.1144038
  94.0839497  19.8593758  97.5209230  95.3930625  19.1655276  97.8318520
  97.0480209  29.5557344  99.0478302  97.0056388  29.7818191  98.1186834
  97.9642908  29.3220719  99.1964103 106.2243580  23.1459848  96.6508261
 106.0861478  23.3361444  95.7229450 105.8679799  23.9079231  97.1076312
  94.3885706  17.1317943 102.7305273  95.0285085  16.9906702 102.0328236
  93.5563237  16.8452456 102.3543875  95.1646010  26.4320373  98.8440265
  95.9586608  25.9370693  98.6422840  94.4537702  25.9038236  98.4807971
  99.9840854  28.8138469 103.1952633 100.0377877  29.3829405 103.9630349
  99.1155636  28.9840354 102.8306670  91.4728773  20.5763455  94.9200018
  90.5426361  20.5147911  95.1369980  91.5686245  20.0539408  94.1236659
  91.3914322  17.1018268  97.5078259  91.6521140  18.0163601  97.3987420
  92.2131495  16.6342710  97.6574872  92.8639248  18.5156025 104.6777084
  93.5362301  18.3073387 104.0289733  92.0369034  18.3178111 104.2382316
  98.9428954  22.9798731 104.7539564  99.8721014  23.1309891 104.5808532
  98.5219984  23.0682752 103.8988211  97.7417286  27.0049395 102.5238102
  97.6028372  26.6368180 103.3964040  96.9531882  27.5197035 102.3522060
  98.3365438  32.1058492  93.8663639  98.5117194  31.6346535  94.6809261
  97.6498226  32.7324258  94.0944899  99.2922501  26.3830998  99.9126940
  98.9572334  26.3431768 100.8084590  98.7926447  25.7175714  99.4397350
  93.2666745  21.7898628 105.4379521  93.1286543  21.0578867 106.0391060
  94.1771668  21.7007528 105.1563709 102.2281693  23.7287032  90.1864000
 101.6110863  23.0033861  90.0897052 101.7598181  24.4896393  89.8431074
  95.8949046  21.5018587 104.9263201  96.6048664  20.8611780 104.8849819
  95.8518354  21.7531482 105.8489381  92.9026523  35.2547855 100.6403499
  93.1423121  35.8866379 101.3182517  92.0595720  34.9035895 100.9268858
  94.0180239  17.9472457  89.3085304  93.1409705  17.8261257  88.9447550
  94.4937992  17.1558535  89.0564192  85.5382379  22.7349616  99.4026811
  86.2253419  22.4211346  98.8147826  85.3830507  23.6390981  99.1294062
  90.3417101  17.6239813 103.8311835  90.2575290  17.0165483 103.0962245
  89.5199807  18.1148831 103.8321331  97.4154385  31.0626977 103.0445003
  97.3424556  31.8681948 103.5564307  96.9731778  31.2618943 102.2193024
  97.2044165  30.2998747  96.5547824  96.4211687  30.8420427  96.6486049
  97.9036910  30.8172727  96.9542066 100.5140815  16.1093376  99.1982030
 101.0109514  15.3563339  98.8783100  99.7427796  16.1457693  98.6325239
  99.8753069  30.9613811 105.2003161 100.5881041  31.5961276 105.1279063
  99.3843097  31.0577677 104.3843163 101.5970595  24.8665064  96.7720453
 100.6626874  24.9866526  96.6025157 101.7747264  23.9637530  96.5080463
  97.0975783  18.2510759  98.9253714  96.7273571  17.6981800  99.6134620
  97.5934876  17.6468893  98.3728714 104.9843147  20.7082383  97.3070487
 105.4503599  21.5410375  97.2330790 105.4350647  20.2427365  98.0115746
  94.9264982  28.7108254 106.0208732  95.6274442  29.3444737 106.1738126
  94.4560097  29.0522986 105.2604372 103.0519378  27.0526204  94.3056639
 103.3279222  26.9382799  95.2150513 102.1823877  26.6543689  94.2668812
  99.6873442  31.3012555  97.9489453  99.8695836  30.4834211  98.4117205
 100.5106428  31.5180247  97.5114343 100.0215607  30.2280740  95.2104501
 100.5503374  29.7173195  94.5974664 100.2843827  29.9123270  96.0750034
  90.5232700  28.2444610 102.9539835  91.1086137  27.4988297 103.0867739
  90.3257539  28.5548566 103.8376499  93.3771355  31.2795857  97.9702277
  92.7081731  31.7641985  97.4866317  93.2384225  31.5265077  98.8845656
  85.1150355  20.8150210 101.6744278  85.1534454  20.2813800 102.4681396
  84.6090648  20.2885415 101.0555255  97.5176624  33.3139600 104.5684936
  98.0694932  33.4771222 105.3334021  97.8582817  33.9044038 103.8964961
  92.4941117  15.6614750 105.1706820  92.5582444  16.5229581 104.7584218
  92.4308237  15.0488752 104.4379179  88.7458932  19.5414312  94.7498209
  89.0412374  18.6324990  94.6965263  87.8446968  19.5202051  94.4279212
 100.6545011  31.2621576 101.5548618 100.5296151  30.4611316 101.0459563
 101.3124102  31.7567769 101.0662588  92.2753179  17.6170308 100.7325758
  91.5539765  18.2306276 100.5933231  93.0646435  18.1528073 100.6542404
 102.7179920  29.0630596 103.1828168 101.7710255  28.9435947 103.1106495
 103.0662693  28.1753094 103.2654429  90.4746774  17.2228410  94.8737535
  90.1459480  16.3425788  94.6912641  90.8286145  17.1676078  95.7613924
  99.7226353  28.8583312  99.3832520  99.5751315  27.9300020  99.5640090
 100.5479846  28.8803403  98.8989595  93.5888597  17.5101379  95.2413012
  93.9284670  18.0387301  94.5191621  94.0360718  17.8481785  96.0171579
 103.3260475  29.6811871 100.4697393 104.2507022  29.4754732 100.3321844
 103.1575778  29.4328272 101.3786734  95.5756744  16.0076001  93.4406305
  96.2965107  16.3857254  92.9370022  94.9522048  16.7264878  93.5441283
  99.7187867  16.7121150  94.3764637  99.9351482  17.5945788  94.0753466
  99.2381934  16.3207363  93.6470279  94.4587089  19.6706863 100.9535382
  94.3131669  19.9847166 101.8459664  93.9812292  20.2891763 100.4006281
  96.3183471  16.6609411 101.0016272  96.3045040  15.7650504 100.6648570
  97.0355900  16.6680075 101.6354558 103.1155791  30.1997538  95.8259484
 103.2892668  29.6343961  95.0733337 103.6084682  30.9998433  95.6438974
  88.9332751  22.2112208 103.8923043  88.3886219  22.9872016 104.0243318
  89.8112101  22.5583012 103.7342165  95.7220367  15.5423791  96.2703842
  95.8436279  14.6140438  96.4694729  95.4322410  15.5562477  95.3582157
 104.1030963  29.5164303  92.9256383 104.7981868  30.1370996  93.1443697
 104.4454114  28.6659654  93.2008761  89.7198773  21.3382104 106.7853200
  88.9780509  21.4864739 107.3717830  89.3991517  21.5990369 105.9219949
 106.0022387  26.9664008  94.4543713 106.5273711  27.3051281  93.7293033
 105.9144739  26.0311024  94.2706848  97.6642435  30.8798082 106.5833590
  97.9729562  30.6347229 107.4556290  98.4617917  31.0844721 106.0952460
  97.6863047  33.0335992  98.8138967  97.2468038  32.5412370  99.5071823
  98.4371164  32.4908959  98.5731042  90.1655386  29.2247533  98.8163595
  90.9913406  28.9251304  98.4362238  89.8149438  28.4555155  99.2653383
  95.1336919  28.5774001 100.8861268  94.5116929  27.9144706 100.5863496
  95.8041786  28.6035133 100.2034916  88.3663991  27.1433859  99.7752528
  87.5295900  26.7156033  99.5936530  88.3387637  27.3366302 100.7123319
  94.6950426  27.1277924  94.3619729  94.8438547  27.8113388  93.7086402
  95.5016870  27.1083014  94.8769185  92.4503059  23.1543102  95.3680798
  92.2049101  22.2505432  95.5661008  92.6198974  23.1560252  94.4260276
  91.7198707  18.8871459  92.8666959  91.0267952  18.9615814  92.2106995
  91.4750459  18.1231803  93.3888476  98.1945832  29.6226055  91.8331476
  97.6219799  30.2416242  91.3801948  98.7678626  30.1725416  92.3671398
 101.4143092  29.9063205  92.9640059 102.3473765  29.8408766  93.1672934
 101.3266304  30.7419472  92.5054591 104.0431108  29.2229075  89.9244006
 103.9644740  28.8888939  90.8179764 104.8640775  29.7150843  89.9235478
  98.5792630  20.9586867  89.1747529  99.5251735  20.8293075  89.2435947
  98.2006875  20.2201529  89.6516957  96.7635548  18.8836844  89.1102414
  95.8567003  18.5869956  89.1865128  97.0411529  18.5866662  88.2436700
  87.6813488  20.2043207  99.5601460  87.3616272  19.3508515  99.2675834
  87.1346916  20.4191785 100.3159428  91.4593395  22.9205648 103.2770967
  91.6779405  23.8522756 103.2959001  91.8719169  22.5613622 104.0625771
  98.3797613  13.4273733  95.2646655  97.5698342  13.0820818  95.6401901
  99.0682030  13.1181277  95.8534267 100.3088162  12.5051780  96.8870952
 100.8619200  12.9247234  97.5460975 100.5458248  11.5787528  96.9293908
  95.5334332  15.7423779  89.2514393  96.3953496  16.0678677  89.5110211
  95.7184676  14.9555275  88.7387459  87.5501748  23.8246119 101.5294582
  86.8565219  23.4100071 101.0164536  88.2974739  23.8666655 100.9328001
 103.6866969  14.6152305  96.3949616 103.1065638  15.2737109  96.0127669
 103.4202901  13.7929650  95.9837034  89.4638490  23.7564372  99.4060597
  89.4409179  23.8552060  98.4542480  89.7739127  24.6029523  99.7277763
  92.1225868  25.8140527 103.5207211  93.0769122  25.7824470 103.4537143
  91.9238392  25.3531151 104.3357437  92.7125250  24.3841643 106.0878009
  93.5318139  24.8785722 106.1112846  92.9862058  23.4673612 106.0595576
 102.4691847  16.7752396  95.4505964 101.5817702  17.0602046  95.2326159
 102.8845836  16.6146159  94.6033241  90.4776097  31.3560147 100.5377409
  90.3430565  30.5960548  99.9715407  90.0608159  32.0801047 100.0706198
 101.6135060  26.5397070  89.5453984 102.3170910  26.7447073  90.1611640
 100.8897709  27.1073832  89.8103068 102.4432870  22.2906932  95.6656255
 102.3868072  22.7475483  94.8263887 102.9961213  21.5297616  95.4879097
  93.6345223  32.2529464 100.7495852  93.5177607  33.1974896 100.6474542
  92.8137669  31.9503025 101.1381651 103.5221758  26.9779600  91.5952444
 104.3567361  26.5460798  91.4129919 103.3606100  26.8061613  92.5229339
 103.1767650  23.4811713  92.9608784 103.1216453  23.3155984  92.0197228
 102.5513705  24.1887746  93.1170973  87.9660165  18.7179777 106.7870206
  88.6119028  18.2078731 107.2757431  87.7577316  19.4548459 107.3613631
  96.4863775  12.9819822  92.5394102  96.4742445  13.9261662  92.6962373
  97.3787197  12.7989967  92.2453563  94.6599737  32.9057726 103.9651780
  95.5626984  32.9381336 104.2818275  94.4337107  31.9758177 103.9798116
  96.4153339  31.6588712 100.6261859  95.4648970  31.6590574 100.5126231
  96.7185825  30.9121447 100.1097893 112.1506033  37.4949251 101.6907621
 112.7884443  37.3755998 100.9870961 112.0326876  38.4430095 101.7495573
 108.9595739  37.4476679 101.6269146 108.6214250  37.3317744 100.7389681
 109.8285507  37.0467844 101.6070152 104.8182555  39.3012155  97.6166037
 104.2547420  39.2102092  96.8482325 104.7034950  38.4812060  98.0968529
 102.3646987  40.7963347 100.4550257 103.1568278  40.4554171 100.0396557
 102.6043637  40.9058322 101.3752411 110.3982113  42.9683123  92.9280502
 109.7470093  43.5537203  92.5414516 111.1926476  43.4989318  92.9875539
 104.3237740  40.0572260  93.3267636 105.0968616  39.5101247  93.1880512
 104.6763139  40.9216509  93.5382097 106.1622783  41.3848642 106.5334535
 105.8712649  42.2894273 106.4181202 106.7979767  41.4265170 107.2478605
 107.0878990  38.7625491 103.1235895 107.6842562  38.5381513 102.4092858
 107.1453961  38.0210236 103.7261343 106.6604018  36.2164926  90.9586086
 106.9129539  35.6946447  90.1969549 105.7228577  36.0531072  91.0612770
 111.7047301  35.2200705  98.7660829 112.4910390  34.8020128  98.4151246
 111.9686005  36.1246797  98.9342478 111.8757378  40.6573555  93.4649486
 111.2403211  40.7308181  94.1770391 111.5454785  41.2467154  92.7868565
 106.3800307  38.1193032  93.1610461 106.2636565  37.4437936  93.8291545
 106.4902567  37.6325406  92.3442614 108.7231848  37.5803179  96.8657150
 108.3590055  37.0533800  97.5770072 109.5798964  37.1901648  96.6923636
 108.3637335  32.6093079  91.8618499 108.5311737  33.4773315  92.2288970
 108.1734504  32.7720361  90.9379788 111.1212668  41.0710058 103.5284329
 110.8213391  41.9735097 103.4200136 110.7763728  40.8042241 104.3805482
 104.5725150  37.5223855  99.5621034 103.6475646  37.3900069  99.7698725
 104.8209563  38.3018074 100.0590976 108.3426556  35.0650736  92.8465166
 108.2226181  35.5107787  93.6850646 107.6479144  35.4136054  92.2878704
 101.9333961  37.1657128 100.3964823 102.0626342  37.4191607 101.3104234
 101.2531412  37.7584836 100.0769478 106.1033448  47.8354378  96.4955297
 106.0257478  48.7862203  96.5743777 105.4995091  47.4900251  97.1530223
 114.0411622  35.5372210  93.6745500 114.9529478  35.7699596  93.4993197
 113.5321269  36.1209254  93.1120578 112.6481204  40.5198028 101.0659081
 112.0190067  40.6843742 100.3635149 112.2606866  40.9339638 101.8370045
 116.5270436  41.4552466  98.4203445 115.8421474  41.8351367  97.8700478
 116.6114285  42.0647793  99.1535393 108.2009166  40.2572436  98.3309166
 108.6647512  40.5360139  97.5413789 107.9365964  39.3555881  98.1482257
 105.0933247  39.8043918 101.2688929 105.6634604  40.2331186 100.6306414
 105.6841359  39.5226502 101.9673115 107.1378052  36.3795589  95.1398731
 107.8402096  36.8316632  95.6072658 106.8058681  35.7379407  95.7678624
 100.8803386  34.6379141 100.4415865 100.0902440  34.8936670  99.9655975
 101.3714634  35.4527479 100.5467905 102.8318132  35.0023720  97.3999342
 102.0349295  35.1142415  97.9182837 102.6043724  35.3410373  96.5340232
 108.6623799  41.5268424 105.3481856 108.7268232  41.9888831 106.1840028
 107.9534723  40.8965789 105.4764166  99.1641089  34.8909632 102.8730856
  99.4149128  35.7756642 103.1388432  99.7000638  34.7114233 102.1005947
 108.3771817  43.1936531  95.2160837 108.2417492  44.0388067  95.6445684
 108.9181629  43.3955809  94.4526770 101.8301214  40.7111969  95.7888762
 102.3425735  41.5055219  95.9394326 102.4823927  40.0138260  95.7222363
 103.6396099  43.8277726  97.8711515 103.8162727  44.7495690  97.6832499
 104.4352932  43.5136145  98.3005895 102.9248455  35.8742357 107.7473678
 102.8101971  34.9727615 108.0480777 102.0692973  36.1206054 107.3958495
 104.7627414  45.3455899 103.8721857 105.3134839  45.2172963 103.0998851
 103.9238890  45.6450788 103.5216750  99.7950131  39.0400624  96.5648332
 100.6325353  39.4497632  96.3482040  99.9728399  38.1000066  96.5348526
 111.6914563  36.7075704  92.2532165 111.1761187  37.4780309  92.4920553
 111.4191872  36.0340840  92.8765227 109.2761674  31.5525405  97.3117403
 108.4203270  31.1632255  97.1323042 109.6888626  31.6317366  96.4517189
 107.0503707  29.1710478 100.7175145 107.9156703  28.9753287 100.3581034
 107.1181216  28.9420830 101.6444502 116.6648837  39.4608059  94.1885339
 115.8878280  39.1219218  93.7440501 117.3440318  39.4660682  93.5140304
 111.4800866  34.5802796  94.0791946 111.1751002  34.8948945  94.9302089
 112.4331308  34.6584216  94.1219279 109.9247298  40.7393020  95.7284900
 109.3968660  40.0045779  95.4158138 109.4234801  41.5167696  95.4824869
 114.9040144  38.9342040 100.8451947 114.2463819  39.6241301 100.9332075
 115.7080543  39.3238472 101.1885933 104.6566026  31.4012686  98.0891512
 105.2309778  31.1787867  97.3564705 105.2437008  31.4701380  98.8420113
 113.7145603  37.2886413  98.8955888 114.2277485  37.9216405  99.3977598
 114.3646827  36.6887608  98.5299248 104.9835613  33.4317147  92.1087397
 104.1472925  33.7691833  92.4296672 104.8440382  33.2966127  91.1714534
 106.9588693  28.2753935  96.8166581 106.3053106  27.9602952  96.1923196
 106.9169168  27.6529675  97.5426404 108.0699898  38.5573230  88.7319873
 107.1626960  38.3262483  88.9311022 108.5670930  37.7610849  88.9193855
 110.9767977  47.2670737  91.6516559 110.3029676  47.5702434  92.2601517
 111.3633799  48.0699817  91.3022017 110.1926434  34.7635868 101.1414229
 109.2748995  34.9850815 100.9835917 110.6086577  34.8382179 100.2825936
 110.9761482  36.1627284  96.2716909 111.7233301  36.6748681  95.9624031
 111.2453071  35.8411337  97.1321303 109.2488132  38.6585825  93.2543863
 108.3399351  38.3744858  93.3516333 109.2783216  39.0784903  92.3947170
 114.4807399  42.2692414  97.0235031 114.0269726  41.4283324  97.0800221
 113.8501366  42.9053813  97.3609811 113.4240319  33.1984400  98.2535698
 112.6863076  32.6861786  98.5845941 113.6767092  32.7584782  97.4418975
 112.9240338  44.1068911  97.9584849 113.2163313  44.6673968  97.2397215
 113.4338959  44.3997472  98.7138008  99.8176302  36.3791339  97.2359066
  99.6200702  35.7860700  96.5110132  99.2622966  36.0743549  97.9535004
 107.7973026  36.2714445  99.3553659 107.8521636  35.3188282  99.2796135
 106.9864228  36.4273884  99.8394957 108.9464220  40.1994568  90.5931942
 108.5083649  39.4830427  90.1337579 109.6874660  40.4270683  90.0317033
 105.7365386  34.8891505  97.1144038 104.9233251  35.1885676  97.5209230
 106.2324380  34.4947194  97.8318520 107.8873964  44.8849262  99.0478302
 107.8450142  45.1110108  98.1186834 108.8036662  44.6512637  99.1964103
 117.0637334  38.4751765  96.6508261 116.9255233  38.6653361  95.7229450
 116.7073553  39.2371148  97.1076312 105.2279460  32.4609861 102.7305273
 105.8678840  32.3198620 102.0328236 104.3956991  32.1744374 102.3543875
 106.0039764  41.7612291  98.8440265 106.7980363  41.2662611  98.6422840
 105.2931457  41.2330154  98.4807971 110.8234609  44.1430387 103.1952633
 110.8771631  44.7121323 103.9630349 109.9549390  44.3132272 102.8306670
 102.3122528  35.9055373  94.9200018 101.3820116  35.8439828  95.1369980
 102.4080000  35.3831326  94.1236659 102.2308077  32.4310186  97.5078259
 102.4914894  33.3455519  97.3987420 103.0525249  31.9634628  97.6574872
 103.7033002  33.8447943 104.6777084 104.3756056  33.6365305 104.0289733
 102.8762789  33.6470029 104.2382316 109.7822709  38.3090649 104.7539564
 110.7114769  38.4601808 104.5808532 109.3613739  38.3974669 103.8988211
 108.5811040  42.3341313 102.5238102 108.4422126  41.9660097 103.3964040
 107.7925637  42.8488952 102.3522060 109.1759192  47.4350409  93.8663639
 109.3510948  46.9638453  94.6809261 108.4891980  48.0616176  94.0944899
 110.1316256  41.7122916  99.9126940 109.7966088  41.6723686 100.8084590
 109.6320201  41.0467632  99.4397350 104.1060499  37.1190546 105.4379521
 103.9680297  36.3870785 106.0391060 105.0165423  37.0299446 105.1563709
 113.0675447  39.0578950  90.1864000 112.4504618  38.3325778  90.0897052
 112.5991936  39.8188310  89.8431074 106.7342800  36.8310505 104.9263201
 107.4442419  36.1903697 104.8849819 106.6912108  37.0823400 105.8489381
 103.7420278  50.5839772 100.6403499 103.9816876  51.2158296 101.3182517
 102.8989474  50.2327812 100.9268858 104.8573993  33.2764374  89.3085304
 103.9803459  33.1553175  88.9447550 105.3331746  32.4850453  89.0564192
  96.3776133  38.0641534  99.4026811  97.0647173  37.7503264  98.8147826
  96.2224262  38.9682899  99.1294062 101.1810855  32.9531731 103.8311835
 101.0969044  32.3457400 103.0962245 100.3593562  33.4440749 103.8321331
 108.2548139  46.3918895 103.0445003 108.1818311  47.1973866 103.5564307
 107.8125533  46.5910860 102.2193024 108.0437919  45.6290665  96.5547824
 107.2605441  46.1712345  96.6486049 108.7430664  46.1464644  96.9542066
 111.3534569  31.4385294  99.1982030 111.8503269  30.6855256  98.8783100
 110.5821551  31.4749611  98.6325239 110.7146823  46.2905729 105.2003161
 111.4274795  46.9253194 105.1279063 110.2236852  46.3869595 104.3843163
 112.4364350  40.1956981  96.7720453 111.5020629  40.3158444  96.6025157
 112.6141018  39.2929448  96.5080463 107.9369538  33.5802677  98.9253714
 107.5667325  33.0273718  99.6134620 108.4328630  32.9760811  98.3728714
 115.8236901  36.0374301  97.3070487 116.2897353  36.8702292  97.2330790
 116.2744402  35.5719282  98.0115746 105.7658737  44.0400172 106.0208732
 106.4668196  44.6736655 106.1738126 105.2953852  44.3814904 105.2604372
 113.8913132  42.3818122  94.3056639 114.1672976  42.2674717  95.2150513
 113.0217631  41.9835607  94.2668812 110.5267196  46.6304473  97.9489453
 110.7089591  45.8126129  98.4117205 111.3500182  46.8472165  97.5114343
 110.8609362  45.5572658  95.2104501 111.3897128  45.0465113  94.5974664
 111.1237581  45.2415188  96.0750034 101.3626455  43.5736527 102.9539835
 101.9479891  42.8280215 103.0867739 101.1651293  43.8840484 103.8376499
 104.2165110  46.6087775  97.9702277 103.5475485  47.0933902  97.4866317
 104.0777980  46.8556995  98.8845656  95.9544109  36.1442127 101.6744278
  95.9928209  35.6105718 102.4681396  95.4484402  35.6177333 101.0555255
 108.3570378  48.6431518 104.5684936 108.9088686  48.8063140 105.3334021
 108.6976572  49.2335956 103.8964961 103.3334872  30.9906668 105.1706820
 103.3976198  31.8521499 104.7584218 103.2701992  30.3780670 104.4379179
  99.5852687  34.8706230  94.7498209  99.8806128  33.9616908  94.6965263
  98.6840723  34.8493969  94.4279212 111.4938766  46.5913494 101.5548618
 111.3689905  45.7903233 101.0459563 112.1517857  47.0859687 101.0662588
 103.1146934  32.9462226 100.7325758 102.3933520  33.5598194 100.5933231
 103.9040190  33.4819991 100.6542404 113.5573674  44.3922514 103.1828168
 112.6104010  44.2727865 103.1106495 113.9056447  43.5045012 103.2654429
 101.3140529  32.5520327  94.8737535 100.9853235  31.6717706  94.6912641
 101.6679899  32.4967996  95.7613924 110.5620107  44.1875230  99.3832520
 110.4145070  43.2591937  99.5640090 111.3873601  44.2095321  98.8989595
 104.4282352  32.8393297  95.2413012 104.7678424  33.3679218  94.5191621
 104.8754472  33.1773703  96.0171579 114.1654229  45.0103789 100.4697393
 115.0900777  44.8046650 100.3321844 113.9969533  44.7620190 101.3786734
 106.4150499  31.3367919  93.4406305 107.1358861  31.7149171  92.9370022
 105.7915803  32.0556795  93.5441283 110.5581622  32.0413068  94.3764637
 110.7745236  32.9237705  94.0753466 110.0775689  31.6499281  93.6470279
 105.2980843  34.9998781 100.9535382 105.1525424  35.3139084 101.8459664
 104.8206047  35.6183681 100.4006281 107.1577226  31.9901329 101.0016272
 107.1438795  31.0942422 100.6648570 107.8749654  31.9971993 101.6354558
 113.9549545  45.5289456  95.8259484 114.1286423  44.9635879  95.0733337
 114.4478437  46.3290351  95.6438974  99.7726505  37.5404125 103.8923043
  99.2279973  38.3163933 104.0243318 100.6505855  37.8874930 103.7342165
 106.5614122  30.8715709  96.2703842 106.6830033  29.9432355  96.4694729
 106.2716164  30.8854395  95.3582157 114.9424718  44.8456221  92.9256383
 115.6375623  45.4662913  93.1443697 115.2847868  43.9951572  93.2008761
 100.5592527  36.6674021 106.7853200  99.8174263  36.8156657 107.3717830
 100.2385271  36.9282287 105.9219949 116.8416141  42.2955926  94.4543713
 117.3667465  42.6343199  93.7293033 116.7538494  41.3602941  94.2706848
 108.5036190  46.2090000 106.5833590 108.8123316  45.9639146 107.4556290
 109.3011672  46.4136638 106.0952460 108.5256802  48.3627909  98.8138967
 108.0861792  47.8704288  99.5071823 109.2764919  47.8200877  98.5731042
 101.0049141  44.5539450  98.8163595 101.8307161  44.2543222  98.4362238
 100.6543193  43.7847073  99.2653383 105.9730674  43.9065918 100.8861268
 105.3510683  43.2436623 100.5863496 106.6435541  43.9327050 100.2034916
  99.2057746  42.4725777  99.7752528  98.3689654  42.0447951  99.5936530
  99.1781391  42.6658220 100.7123319 105.5344181  42.4569842  94.3619729
 105.6832301  43.1405306  93.7086402 106.3410624  42.4374932  94.8769185
 103.2896814  38.4835019  95.3680798 103.0442856  37.5797349  95.5661008
 103.4592728  38.4852170  94.4260276 102.5592461  34.2163377  92.8666959
 101.8661706  34.2907732  92.2106995 102.3144213  33.4523721  93.3888476
 109.0339586  44.9517972  91.8331476 108.4613553  45.5708159  91.3801948
 109.6072380  45.5017334  92.3671398 112.2536846  45.2355122  92.9640059
 113.1867519  45.1700684  93.1672934 112.1660059  46.0711389  92.5054591
 114.8824863  44.5520993  89.9244006 114.8038494  44.2180856  90.8179764
 115.7034530  45.0442761  89.9235478 109.4186385  36.2878785  89.1747529
 110.3645490  36.1584993  89.2435947 109.0400630  35.5493447  89.6516957
 107.6029302  34.2128761  89.1102414 106.6960757  33.9161874  89.1865128
 107.8805283  33.9158579  88.2436700  98.5207242  35.5335125  99.5601460
  98.2010027  34.6800433  99.2675834  97.9740671  35.7483703 100.3159428
 102.2987150  38.2497566 103.2770967 102.5173160  39.1814674 103.2959001
 102.7112924  37.8905540 104.0625771 109.2191368  28.7565651  95.2646655
 108.4092096  28.4112736  95.6401901 109.9075785  28.4473195  95.8534267
 111.1481916  27.8343698  96.8870952 111.7012955  28.2539151  97.5460975
 111.3852002  26.9079446  96.9293908 106.3728087  31.0715697  89.2514393
 107.2347251  31.3970595  89.5110211 106.5578431  30.2847192  88.7387459
  98.3895502  39.1538036 101.5294582  97.6958974  38.7391989 101.0164536
  99.1368493  39.1958573 100.9328001 114.5260723  29.9444223  96.3949616
 113.9459392  30.6029027  96.0127669 114.2596656  29.1221568  95.9837034
 100.3032245  39.0856290  99.4060597 100.2802933  39.1843977  98.4542480
 100.6132881  39.9321441  99.7277763 102.9619623  41.1432445 103.5207211
 103.9162876  41.1116387 103.4537143 102.7632146  40.6823069 104.3357437
 103.5519005  39.7133561 106.0878009 104.3711894  40.2077640 106.1112846
 103.8255813  38.7965529 106.0595576 113.3085601  32.1044313  95.4505964
 112.4211456  32.3893964  95.2326159 113.7239590  31.9438077  94.6033241
 101.3169852  46.6852065 100.5377409 101.1824320  45.9252465  99.9715407
 100.9001914  47.4092964 100.0706198 112.4528815  41.8688988  89.5453984
 113.1564665  42.0738991  90.1611640 111.7291463  42.4365750  89.8103068
 113.2826625  37.6198849  95.6656255 113.2261826  38.0767401  94.8263887
 113.8354967  36.8589534  95.4879097 104.4738977  47.5821382 100.7495852
 104.3571362  48.5266814 100.6474542 103.6531424  47.2794943 101.1381651
 114.3615512  42.3071517  91.5952444 115.1961116  41.8752716  91.4129919
 114.1999855  42.1353531  92.5229339 114.0161404  38.8103631  92.9608784
 113.9610208  38.6447902  92.0197228 113.3907459  39.5179664  93.1170973
  98.8053919  34.0471695 106.7870206  99.4512783  33.5370649 107.2757431
  98.5971070  34.7840377 107.3613631 107.3257530  28.3111740  92.5394102
 107.3136199  29.2553580  92.6962373 108.2180952  28.1281885  92.2453563
 105.4993492  48.2349643 103.9651780 106.4020738  48.2673254 104.2818275
 105.2730862  47.3050094 103.9798116 107.2547094  46.9880630 100.6261859
 106.3042725  46.9882492 100.5126231 107.5579580  46.2413365 100.1097893
 115.6576309  54.6304073  97.6166037 115.0941174  54.5394010  96.8482325
 115.5428704  53.8103977  98.0968529 113.2040741  56.1255265 100.4550257
 113.9962033  55.7846089 100.0396557 113.4437391  56.2350240 101.3752411
 115.1631495  55.3864178  93.3267636 115.9362371  54.8393165  93.1880512
 115.5156894  56.2508427  93.5382097 117.0016538  56.7140560 106.5334535
 116.7106403  57.6186191 106.4181202 117.6373522  56.7557088 107.2478605
 117.9272744  54.0917409 103.1235895 118.5236317  53.8673431 102.4092858
 117.9847716  53.3502154 103.7261343 117.4997773  51.5456844  90.9586086
 117.7523293  51.0238365  90.1969549 116.5622332  51.3822989  91.0612770
 117.2194062  53.4484950  93.1610461 117.1030320  52.7729853  93.8291545
 117.3296321  52.9617324  92.3442614 119.5625602  52.9095097  96.8657150
 119.1983810  52.3825718  97.5770072 120.4192718  52.5193566  96.6923636
 119.2031089  47.9384997  91.8618499 119.3705492  48.8065233  92.2288970
 119.0128258  48.1012278  90.9379788 115.4118904  52.8515772  99.5621034
 114.4869401  52.7191987  99.7698725 115.6603317  53.6309992 100.0590976
 119.1820310  50.3942654  92.8465166 119.0619935  50.8399705  93.6850646
 118.4872899  50.7427972  92.2878704 112.7727715  52.4949046 100.3964823
 112.9020096  52.7483525 101.3104234 112.0925166  53.0876754 100.0769478
 116.9427202  63.1646296  96.4955297 116.8651232  64.1154121  96.5743777
 116.3388846  62.8192168  97.1530223 119.0402921  55.5864354  98.3309166
 119.5041266  55.8652057  97.5413789 118.7759719  54.6847798  98.1482257
 115.9327002  55.1335835 101.2688929 116.5028359  55.5623104 100.6306414
 116.5235114  54.8518420 101.9673115 117.9771807  51.7087506  95.1398731
 118.6795850  52.1608550  95.6072658 117.6452435  51.0671325  95.7678624
 111.7197141  49.9671059 100.4415865 110.9296195  50.2228587  99.9655975
 112.2108388  50.7819397 100.5467905 113.6711886  50.3315638  97.3999342
 112.8743049  50.4434332  97.9182837 113.4437478  50.6702290  96.5340232
 119.5017554  56.8560341 105.3481856 119.5661986  57.3180749 106.1840028
 118.7928478  56.2257706 105.4764166 110.0034844  50.2201549 102.8730856
 110.2542882  51.1048559 103.1388432 110.5394392  50.0406151 102.1005947
 119.2165571  58.5228449  95.2160837 119.0811246  59.3679985  95.6445684
 119.7575384  58.7247727  94.4526770 112.6694969  56.0403887  95.7888762
 113.1819489  56.8347137  95.9394326 113.3217682  55.3430177  95.7222363
 114.4789853  59.1569643  97.8711515 114.6556482  60.0787608  97.6832499
 115.2746687  58.8428062  98.3005895 113.7642210  51.2034275 107.7473678
 113.6495725  50.3019532 108.0480777 112.9086728  51.4497972 107.3958495
 115.6021169  60.6747817 103.8721857 116.1528594  60.5464880 103.0998851
 114.7632645  60.9742706 103.5216750 110.6343885  54.3692541  96.5648332
 111.4719107  54.7789550  96.3482040 110.8122153  53.4291983  96.5348526
 117.8897461  44.5002396 100.7175145 118.7550458  44.3045204 100.3581034
 117.9574970  44.2712747 101.6444502 115.4959780  46.7304604  98.0891512
 116.0703532  46.5079785  97.3564705 116.0830763  46.7993298  98.8420113
 115.8229367  48.7609065  92.1087397 114.9866680  49.0983751  92.4296672
 115.6834137  48.6258044  91.1714534 117.7982448  43.6045852  96.8166581
 117.1446860  43.2894870  96.1923196 117.7562922  42.9821593  97.5426404
 118.9093653  53.8865148  88.7319873 118.0020715  53.6554401  88.9311022
 119.4064685  53.0902767  88.9193855 120.0881886  53.9877742  93.2543863
 119.1793105  53.7036775  93.3516333 120.1176970  54.4076821  92.3947170
 110.6570057  51.7083257  97.2359066 110.4594456  51.1152617  96.5110132
 110.1016721  51.4035467  97.9535004 118.6366780  51.6006363  99.3553659
 118.6915390  50.6480199  99.2796135 117.8257982  51.7565802  99.8394957
 116.5759140  50.2183423  97.1144038 115.7627006  50.5177593  97.5209230
 117.0718134  49.8239112  97.8318520 118.7267718  60.2141180  99.0478302
 118.6843897  60.4402026  98.1186834 119.6430417  59.9804554  99.1964103
 116.0673215  47.7901778 102.7305273 116.7072594  47.6490537 102.0328236
 115.2350746  47.5036292 102.3543875 116.8433519  57.0904209  98.8440265
 117.6374117  56.5954529  98.6422840 116.1325211  56.5622072  98.4807971
 113.1516282  51.2347290  94.9200018 112.2213870  51.1731746  95.1369980
 113.2473754  50.7123243  94.1236659 113.0701831  47.7602103  97.5078259
 113.3308649  48.6747437  97.3987420 113.8919004  47.2926546  97.6574872
 114.5426757  49.1739860 104.6777084 115.2149810  48.9657223 104.0289733
 113.7156543  48.9761946 104.2382316 119.4204795  57.6633231 102.5238102
 119.2815881  57.2952015 103.3964040 118.6319391  58.1780870 102.3522060
 120.0152947  62.7642327  93.8663639 120.1904703  62.2930370  94.6809261
 119.3285735  63.3908093  94.0944899 114.9454254  52.4482463 105.4379521
 114.8074052  51.7162702 106.0391060 115.8559177  52.3591364 105.1563709
 117.5736555  52.1602423 104.9263201 118.2836173  51.5195615 104.8849819
 117.5305863  52.4115318 105.8489381 114.5814032  65.9131690 100.6403499
 114.8210630  66.5450214 101.3182517 113.7383229  65.5619730 100.9268858
 115.6967748  48.6056292  89.3085304 114.8197214  48.4845093  88.9447550
 116.1725501  47.8142370  89.0564192 107.2169888  53.3933452  99.4026811
 107.9040928  53.0795182  98.8147826 107.0618016  54.2974816  99.1294062
 112.0204610  48.2823648 103.8311835 111.9362799  47.6749318 103.0962245
 111.1987316  48.7732667 103.8321331 119.0941894  61.7210812 103.0445003
 119.0212065  62.5265784 103.5564307 118.6519287  61.9202778 102.2193024
 118.8831674  60.9582582  96.5547824 118.0999195  61.5004263  96.6486049
 119.5824419  61.4756562  96.9542066 118.7763292  48.9094595  98.9253714
 118.4061080  48.3565635  99.6134620 119.2722385  48.3052728  98.3728714
 116.6052491  59.3692090 106.0208732 117.3061951  60.0028573 106.1738126
 116.1347606  59.7106821 105.2604372 112.2020209  58.9028445 102.9539835
 112.7873646  58.1572133 103.0867739 112.0045048  59.2132402 103.8376499
 115.0558864  61.9379692  97.9702277 114.3869240  62.4225820  97.4866317
 114.9171734  62.1848913  98.8845656 106.7937864  51.4734045 101.6744278
 106.8321963  50.9397636 102.4681396 106.2878157  50.9469251 101.0555255
 119.1964133  63.9723436 104.5684936 119.7482441  64.1355057 105.3334021
 119.5370326  64.5627874 103.8964961 114.1728626  46.3198586 105.1706820
 114.2369953  47.1813417 104.7584218 114.1095746  45.7072587 104.4379179
 110.4246441  50.1998147  94.7498209 110.7199882  49.2908826  94.6965263
 109.5234477  50.1785887  94.4279212 113.9540688  48.2754144 100.7325758
 113.2327274  48.8890112 100.5933231 114.7433944  48.8111909 100.6542404
 112.1534283  47.8812245  94.8737535 111.8246989  47.0009624  94.6912641
 112.5073654  47.8259914  95.7613924 115.2676106  48.1685215  95.2413012
 115.6072179  48.6971136  94.5191621 115.7148227  48.5065621  96.0171579
 117.2544253  46.6659836  93.4406305 117.9752616  47.0441089  92.9370022
 116.6309557  47.3848713  93.5441283 116.1374598  50.3290699 100.9535382
 115.9919178  50.6431002 101.8459664 115.6599801  50.9475599 100.4006281
 117.9970980  47.3193246 101.0016272 117.9832549  46.4234340 100.6648570
 118.7143409  47.3263910 101.6354558 110.6120260  52.8696043 103.8923043
 110.0673728  53.6455851 104.0243318 111.4899610  53.2166847 103.7342165
 117.4007876  46.2007627  96.2703842 117.5223788  45.2724273  96.4694729
 117.1109919  46.2146313  95.3582157 111.3986282  51.9965939 106.7853200
 110.6568018  52.1448575 107.3717830 111.0779026  52.2574205 105.9219949
 119.3429944  61.5381917 106.5833590 119.6517071  61.2931064 107.4556290
 120.1405426  61.7428556 106.0952460 119.3650556  63.6919827  98.8138967
 118.9255547  63.1996206  99.5071823 120.1158673  63.1492795  98.5731042
 111.8442895  59.8831368  98.8163595 112.6700915  59.5835140  98.4362238
 111.4936947  59.1138990  99.2653383 116.8124428  59.2357836 100.8861268
 116.1904438  58.5728541 100.5863496 117.4829295  59.2618968 100.2034916
 110.0451500  57.8017694  99.7752528 109.2083409  57.3739869  99.5936530
 110.0175146  57.9950138 100.7123319 116.3737935  57.7861759  94.3619729
 116.5226056  58.4697224  93.7086402 117.1804379  57.7666850  94.8769185
 114.1290568  53.8126937  95.3680798 113.8836610  52.9089267  95.5661008
 114.2986483  53.8144088  94.4260276 113.3986216  49.5455295  92.8666959
 112.7055461  49.6199650  92.2106995 113.1537968  48.7815638  93.3888476
 119.8733341  60.2809890  91.8331476 119.3007308  60.9000077  91.3801948
 120.4466135  60.8309252  92.3671398 118.4423057  49.5420679  89.1102414
 117.5354512  49.2453792  89.1865128 118.7199038  49.2450497  88.2436700
 109.3600997  50.8627042  99.5601460 109.0403781  50.0092351  99.2675834
 108.8134425  51.0775621 100.3159428 113.1380904  53.5789483 103.2770967
 113.3566914  54.5106591 103.2959001 113.5506678  53.2197458 104.0625771
 117.2121841  46.4007614  89.2514393 118.0741005  46.7262513  89.5110211
 117.3972185  45.6139110  88.7387459 109.2289257  54.4829954 101.5294582
 108.5352728  54.0683907 101.0164536 109.9762248  54.5250490 100.9328001
 111.1425999  54.4148208  99.4060597 111.1196688  54.5135895  98.4542480
 111.4526636  55.2613359  99.7277763 113.8013377  56.4724363 103.5207211
 114.7556631  56.4408305 103.4537143 113.6025901  56.0114986 104.3357437
 114.3912759  55.0425479 106.0878009 115.2105648  55.5369557 106.1112846
 114.6649567  54.1257447 106.0595576 112.1563606  62.0143982 100.5377409
 112.0218074  61.2544383  99.9715407 111.7395668  62.7384882 100.0706198
 115.3132732  62.9113299 100.7495852 115.1965116  63.8558732 100.6474542
 114.4925178  62.6086861 101.1381651 109.6447674  49.3763613 106.7870206
 110.2906537  48.8662567 107.2757431 109.4364825  50.1132294 107.3613631
 118.1651284  43.6403657  92.5394102 118.1529954  44.5845497  92.6962373
 119.0574706  43.4573803  92.2453563 116.3387246  63.5641561 103.9651780
 117.2414493  63.5965171 104.2818275 116.1124616  62.6342012 103.9798116
 118.0940848  62.3172548 100.6261859 117.1436479  62.3174409 100.5126231
 118.3973334  61.5705282 100.1097893 118.0563642  68.7225369  99.4026811
 118.7434682  68.4087099  98.8147826 117.9011771  69.6266734  99.1294062
 117.6331618  66.8025963 101.6744278 117.6715718  66.2689553 102.4681396
 117.1271911  66.2761168 101.0555255 120.1994751  66.1918960  99.5601460
 119.8797536  65.3384268  99.2675834 119.6528180  66.4067538 100.3159428
  95.2639695   9.5124583  83.2200603  95.1863724  10.4632408  83.2989084
  94.6601338   9.1670456  83.8775530  92.9026524  12.2609977  87.3648805
  93.1423123  12.8928501  88.0427824  92.0595721  11.9098017  87.6514165
  97.5176625  10.3201723  91.2930242  98.0694933  10.4833345  92.0579328
  97.8582819  10.9106161  90.6210267  90.4776098   8.3622269  87.2622716
  90.3430566   7.6022670  86.6960714  90.0608161   9.0863169  86.7951505
  93.6345224   9.2591587  87.4741158  93.5177608  10.2037019  87.3719849
  92.8137671   8.9565148  87.8626958  94.6599738   9.9119848  90.6897087
  95.5626985   9.9443459  91.0063582  94.4337108   8.9820299  90.7043423
 104.8182556  16.3074278  84.3411343 104.2547421  16.2164215  83.5727631
 104.7034951  15.4874182  84.8213836 102.3646988  17.8025469  87.1795564
 103.1568280  17.4616294  86.7641863 102.6043638  17.9120444  88.0997717
 110.3982115  19.9745246  79.6525808 109.7470094  20.5599326  79.2659822
 111.1926477  20.5051440  79.7120846 104.3237742  17.0634383  80.0512943
 105.0968618  16.5163370  79.9125819 104.6763141  17.9278632  80.2627404
 106.1622784  18.3910765  93.2579842 105.8712650  19.2956396  93.1426508
 106.7979769  18.4327293  93.9723912 107.0878991  15.7687613  89.8481202
 107.6842563  15.5443636  89.1338165 107.1453963  15.0272359  90.4506650
 111.8757380  17.6635677  80.1894793 111.2403213  17.7370304  80.9015697
 111.5454786  18.2529276  79.5113872 106.3800308  15.1255155  79.8855768
 106.2636566  14.4500058  80.5536852 106.4902568  14.6387529  79.0687921
 111.1212669  18.0772180  90.2529636 110.8213392  18.9797219  90.1445443
 110.7763729  17.8104364  91.1050789 104.5725151  14.5285977  86.2866340
 103.6475647  14.3962191  86.4944032 104.8209564  15.3080197  86.7836283
 101.9333962  14.1719251  87.1210129 102.0626343  14.4253730  88.0349541
 101.2531413  14.7646959  86.8014784 106.1033449  24.8416501  83.2200603
 106.0257479  25.7924326  83.2989084 105.4995093  24.4962373  83.8775530
 112.6481206  17.5260151  87.7904388 112.0190068  17.6905865  87.0880456
 112.2606868  17.9401760  88.5615352 116.5270437  18.4614589  85.1448751
 115.8421476  18.8413490  84.5945785 116.6114287  19.0709915  85.8780699
 108.2009167  17.2634559  85.0554473 108.6647513  17.5422262  84.2659095
 107.9365966  16.3618003  84.8727563 105.0933248  16.8106040  87.9934236
 105.6634606  17.2393309  87.3551721 105.6841360  16.5288625  88.6918422
 100.8803387  11.6441264  87.1661172 100.0902441  11.8998792  86.6901282
 101.3714635  12.4589602  87.2713212 102.8318133  12.0085843  84.1244648
 102.0349296  12.1204537  84.6428144 102.6043725  12.3472495  83.2585539
 108.6623800  18.5330546  92.0727163 108.7268233  18.9950954  92.9085335
 107.9534724  17.9027911  92.2009473  99.1641090  11.8971754  89.5976162
  99.4149129  12.7818764  89.8633738  99.7000639  11.7176356  88.8251254
 108.3771818  20.1998654  81.9406143 108.2417493  21.0450190  82.3690991
 108.9181631  20.4017931  81.1772077 101.8301215  17.7174092  82.5134068
 102.3425736  18.5117342  82.6639633 102.4823928  17.0200382  82.4467670
 103.6396100  20.8339848  84.5956821 103.8162729  21.7557813  84.4077805
 104.4352934  20.5198267  85.0251201 102.9248457  12.8804480  94.4718985
 102.8101972  11.9789737  94.7726084 102.0692974  13.1268177  94.1203801
 104.7627416  22.3518022  90.5967164 105.3134841  22.2235085  89.8244158
 103.9238892  22.6512911  90.2462057  99.7950132  16.0462746  83.2893639
 100.6325354  16.4559754  83.0727347  99.9728400  15.1062188  83.2593833
 109.9247299  17.7455142  82.4530207 109.3968661  17.0107902  82.1403444
 109.4234802  18.5229819  82.2070175 108.0699900  15.5635352  75.4565180
 107.1626961  15.3324606  75.6556329 108.5670932  14.7672972  75.6439161
 110.9767978  24.2732860  78.3761866 110.3029677  24.5764556  78.9846824
 111.3633800  25.0761940  78.0267323 109.2488133  15.6647947  79.9789170
 108.3399352  15.3806980  80.0761640 109.2783217  16.0847026  79.1192477
 114.4807400  19.2754537  83.7480338 114.0269728  18.4345447  83.8045528
 113.8501367  19.9115935  84.0855118 112.9240340  21.1131034  84.6830156
 113.2163314  21.6736091  83.9642521 113.4338960  21.4059595  85.4383315
  99.8176303  13.3853461  83.9604372  99.6200703  12.7922822  83.2355439
  99.2622967  13.0805672  84.6780311 108.9464221  17.2056691  77.3177249
 108.5083651  16.4892550  76.8582886 109.6874662  17.4332806  76.7562340
 107.8873965  21.8911385  85.7723609 107.8450144  22.1172231  84.8432141
 108.8036664  21.6574759  85.9209410 106.0039766  18.7674414  85.5685572
 106.7980364  18.2724734  85.3668147 105.2931458  18.2392277  85.2053277
 110.8234610  21.1492509  89.9197939 110.8771632  21.7183445  90.6875655
 109.9549391  21.3194394  89.5551976 102.3122529  12.9117495  81.6445324
 101.3820117  12.8501951  81.8615286 102.4080001  12.3893448  80.8481966
 109.7822710  15.3152771  91.4784871 110.7114770  15.4663931  91.3053838
 109.3613740  15.4036792  90.6233518 108.5811042  19.3403436  89.2483409
 108.4422127  18.9722220  90.1209347 107.7925638  19.8551075  89.0767367
 109.1759194  24.4412532  80.5908945 109.3510949  23.9700575  81.4054568
 108.4891982  25.0678298  80.8190206 110.1316257  18.7185038  86.6372247
 109.7966089  18.6785808  87.5329896 109.6320202  18.0529754  86.1642657
 104.1060501  14.1252668  92.1624828 103.9680299  13.3932907  92.7636367
 105.0165424  14.0361568  91.8809015 113.0675448  16.0641073  76.9109306
 112.4504619  15.3387901  76.8142359 112.5991937  16.8250433  76.5676380
 103.7420279  27.5901895  87.3648805 103.9816877  28.2220419  88.0427824
 102.8989475  27.2389935  87.6514165  96.3776134  15.0703657  86.1272118
  97.0647174  14.7565387  85.5393133  96.2224263  15.9745021  85.8539369
 108.2548141  23.3981017  89.7690309 108.1818312  24.2035989  90.2809614
 107.8125534  23.5972983  88.9438331 108.0437920  22.6352787  83.2793131
 107.2605442  23.1774467  83.3731355 108.7430666  23.1526767  83.6787372
 110.7146824  23.2967851  91.9248468 111.4274796  23.9315316  91.8524370
 110.2236853  23.3931717  91.1088470 112.4364351  17.2019104  83.4965760
 111.5020630  17.3220566  83.3270464 112.6141020  16.2991571  83.2325770
 105.7658738  21.0462295  92.7454039 106.4668197  21.6798778  92.8983433
 105.2953853  21.3877026  91.9849678 113.8913134  19.3880245  81.0301946
 114.1672978  19.2736839  81.9395820 113.0217632  18.9897729  80.9914119
 110.5267198  23.6366595  84.6734760 110.7089592  22.8188251  85.1362512
 111.3500184  23.8534288  84.2359650 110.8609363  22.5634781  81.9349808
 111.3897130  22.0527235  81.3219970 111.1237583  22.2477311  82.7995341
 101.3626456  20.5798650  89.6785142 101.9479893  19.8342338  89.8113046
 101.1651294  20.8902607  90.5621805 104.2165111  23.6149897  84.6947584
 103.5475486  24.0996025  84.2111624 104.0777981  23.8619118  85.6090963
  95.9544111  13.1504250  88.3989585  95.9928210  12.6167841  89.1926703
  95.4484403  12.6239456  87.7800562 108.3570380  25.6493641  91.2930242
 108.9088688  25.8125262  92.0579328 108.6976573  26.2398079  90.6210267
  99.5852688  11.8768352  81.4743516  99.8806129  10.9679031  81.4210570
  98.6840724  11.8556092  81.1524518 111.4938767  23.5975616  88.2793925
 111.3689906  22.7965356  87.7704870 112.1517858  24.0921810  87.7907894
 113.5573675  21.3984636  89.9073475 112.6104011  21.2789988  89.8351801
 113.9056448  20.5107134  89.9899736 110.5620109  21.1937353  86.1077827
 110.4145071  20.2654060  86.2885397 111.3873602  21.2157443  85.6234902
 114.1654230  22.0165911  87.1942700 115.0900778  21.8108773  87.0567151
 113.9969534  21.7682312  88.1032041 113.9549547  22.5351579  82.5504791
 114.1286424  21.9698001  81.7978643 114.4478438  23.3352474  82.3684281
  99.7726506  14.5466248  90.6168350  99.2279975  15.3226056  90.7488624
 100.6505856  14.8937052  90.4587471 114.9424719  21.8518343  79.6501689
 115.6375624  22.4725036  79.8689004 115.2847869  21.0013694  79.9254067
 100.5592528  13.6736144  93.5098507  99.8174264  13.8218779  94.0963137
 100.2385273  13.9344410  92.6465256 116.8416142  19.3018049  81.1789020
 117.3667466  19.6405321  80.4538340 116.7538495  18.3665064  80.9952155
 108.5036191  23.2152122  93.3078897 108.8123317  22.9701269  94.1801596
 109.3011673  23.4198761  92.8197767 108.5256803  25.3690032  85.5384273
 108.0861793  24.8766411  86.2317130 109.2764920  24.8263000  85.2976348
 101.0049142  21.5601573  85.5408901 101.8307162  21.2605345  85.1607545
 100.6543194  20.7909195  85.9898690 105.9730675  20.9128041  87.6106575
 105.3510684  20.2498746  87.3108803 106.6435542  20.9389173  86.9280223
  99.2057747  19.4787899  86.4997835  98.3689655  19.0510074  86.3181836
  99.1781392  19.6720343  87.4368626 105.5344182  19.4631964  81.0865035
 105.6832302  20.1467429  80.4331708 106.3410626  19.4437054  81.6014491
 103.2896815  15.4897142  82.0926104 103.0442857  14.5859472  82.2906315
 103.4592730  15.4914292  81.1505582 109.0339588  21.9580095  78.5576783
 108.4613555  22.5770282  78.1047255 109.6072381  22.5079457  79.0916705
 112.2536847  22.2417245  79.6885365 113.1867521  22.1762807  79.8918241
 112.1660060  23.0773512  79.2299898 114.8824864  21.5583115  76.6489313
 114.8038496  21.2242979  77.5425071 115.7034531  22.0504883  76.6480785
  98.5207244  12.5397247  86.2846767  98.2010028  11.6862556  85.9921141
  97.9740672  12.7545826  87.0404734 102.2987151  15.2559688  90.0016274
 102.5173161  16.1876796  90.0204307 102.7112925  14.8967663  90.7871077
  98.3895504  16.1600159  88.2539889  97.6958975  15.7454112  87.7409843
  99.1368495  16.2020695  87.6573307 100.3032246  16.0918413  86.1305903
 100.2802934  16.1906100  85.1787787 100.6132883  16.9383563  86.4523070
 102.9619624  18.1494568  90.2452518 103.9162878  18.1178510  90.1782449
 102.7632148  17.6885191  91.0602744 103.5519006  16.7195684  92.8123316
 104.3711895  17.2139762  92.8358153 103.8255814  15.8027652  92.7840883
 101.3169853  23.6914187  87.2622716 101.1824321  22.9314588  86.6960714
 100.9001915  24.4155087  86.7951505 112.4528816  18.8751111  76.2699291
 113.1564666  19.0801113  76.8856947 111.7291465  19.4427873  76.5348375
 104.4738979  24.5883504  87.4741158 104.3571363  25.5328937  87.3719849
 103.6531425  24.2857066  87.8626958 114.3615513  19.3133640  78.3197751
 115.1961117  18.8814838  78.1375226 114.1999856  19.1415654  79.2474646
 105.4993493  25.2411766  90.6897087 106.4020740  25.2735376  91.0063582
 105.2730863  24.3112217  90.7043423 107.2547095  23.9942753  87.3507165
 106.3042726  23.9944614  87.2371538 107.5579581  23.2475487  86.8343200
 115.6576310  31.6366196  84.3411343 115.0941175  31.5456132  83.5727631
 115.5428705  30.8166100  84.8213836 113.2040742  33.1317387  87.1795564
 113.9962034  32.7908212  86.7641863 113.4437392  33.2412362  88.0997717
 115.1631496  32.3926300  80.0512943 115.9362372  31.8455287  79.9125819
 115.5156895  33.2570550  80.2627404 117.0016539  33.7202683  93.2579842
 116.7106405  34.6248313  93.1426508 117.6373523  33.7619210  93.9723912
 117.9272746  31.0979531  89.8481202 118.5236318  30.8735554  89.1338165
 117.9847717  30.3564277  90.4506650 117.4997774  28.5518966  77.6831393
 117.7523295  28.0300488  76.9214856 116.5622333  28.3885112  77.7858076
 117.2194063  30.4547072  79.8855768 117.1030321  29.7791976  80.5536852
 117.3296323  29.9679446  79.0687921 119.5625604  29.9157220  83.5902457
 119.1983811  29.3887841  84.3015378 120.4192720  29.5255689  83.4168942
 119.2031091  24.9447119  78.5863805 119.3705493  25.8127356  78.9534276
 119.0128260  25.1074401  77.6625095 115.4118905  29.8577895  86.2866340
 114.4869402  29.7254109  86.4944032 115.6603319  30.6372114  86.7836283
 119.1820312  27.4004777  79.5710472 119.0619937  27.8461828  80.4095952
 118.4872900  27.7490094  79.0124010 112.7727716  29.5011169  87.1210129
 112.9020098  29.7545647  88.0349541 112.0925168  30.0938877  86.8014784
 116.9427204  40.1708419  83.2200603 116.8651233  41.1216244  83.2989084
 116.3388847  39.8254291  83.8775530 119.0402922  32.5926476  85.0554473
 119.5041267  32.8714179  84.2659095 118.7759720  31.6909921  84.8727563
 115.9327003  32.1397958  87.9934236 116.5028360  32.5685226  87.3551721
 116.5235115  31.8580543  88.6918422 117.9771808  28.7149629  81.8644038
 118.6795851  29.1670673  82.3317964 117.6452436  28.0733448  82.4923931
 111.7197142  26.9733181  87.1661172 110.9296196  27.2290710  86.6901282
 112.2108389  27.7881519  87.2713212 113.6711887  27.3377761  84.1244648
 112.8743051  27.4496455  84.6428144 113.4437479  27.6764413  83.2585539
 119.5017555  33.8622464  92.0727163 119.5661987  34.3242871  92.9085335
 118.7928479  33.2319829  92.2009473 110.0034845  27.2263672  89.5976162
 110.2542883  28.1110682  89.8633738 110.5394393  27.0468273  88.8251254
 119.2165573  35.5290571  81.9406143 119.0811247  36.3742107  82.3690991
 119.7575385  35.7309849  81.1772077 112.6694970  33.0466009  82.5134068
 113.1819491  33.8409260  82.6639633 113.3217683  32.3492300  82.4467670
 114.4789855  36.1631766  84.5956821 114.6556483  37.0849730  84.4077805
 115.2746688  35.8490185  85.0251201 113.7642211  28.2096398  94.4718985
 113.6495726  27.3081655  94.7726084 112.9086729  28.4560094  94.1203801
 115.6021170  37.6809940  90.5967164 116.1528595  37.5527003  89.8244158
 114.7632646  37.9804829  90.2462057 110.6343887  31.3754664  83.2893639
 111.4719109  31.7851672  83.0727347 110.8122154  30.4354106  83.2593833
 117.8897462  21.5064518  87.4420452 118.7550459  21.3107327  87.0826341
 117.9574971  21.2774870  88.3689808 115.4959781  23.7366726  84.8136818
 116.0703533  23.5141908  84.0810011 116.0830764  23.8055421  85.5665420
 115.8229369  25.7671187  78.8332704 114.9866681  26.1045874  79.1541978
 115.6834138  25.6320167  77.8959841 117.7982449  20.6107975  83.5411888
 117.1446862  20.2956992  82.9168503 117.7562923  19.9883716  84.2671711
 118.9093654  30.8927270  75.4565180 118.0020716  30.6616524  75.6556329
 119.4064686  30.0964889  75.6439161 120.0881887  30.9939865  79.9789170
 119.1793107  30.7098898  80.0761640 120.1176971  31.4138944  79.1192477
 110.6570058  28.7145379  83.9604372 110.4594458  28.1214740  83.2355439
 110.1016722  28.4097589  84.6780311 118.6366782  28.6068486  86.0798965
 118.6915391  27.6542322  86.0041442 117.8257984  28.7627925  86.5640264
 116.5759141  27.2245545  83.8389344 115.7627007  27.5239716  84.2454536
 117.0718136  26.8301234  84.5563826 118.7267719  37.2203302  85.7723609
 118.6843898  37.4464149  84.8432141 119.6430418  36.9866677  85.9209410
 116.0673216  24.7963901  89.4550579 116.7072596  24.6552660  88.7573543
 115.2350747  24.5098414  89.0789181 116.8433520  34.0966331  85.5685572
 117.6374119  33.6016651  85.3668147 116.1325213  33.5684194  85.2053277
 113.1516284  28.2409413  81.6445324 112.2213872  28.1793869  81.8615286
 113.2473756  27.7185366  80.8481966 113.0701833  24.7664226  84.2323566
 113.3308650  25.6809559  84.1232726 113.8919005  24.2988668  84.3820179
 114.5426758  26.1801983  91.4022391 115.2149811  25.9719345  90.7535039
 113.7156544  25.9824069  90.9627623 119.4204796  34.6695353  89.2483409
 119.2815882  34.3014138  90.1209347 118.6319392  35.1842993  89.0767367
 120.0152948  39.7704450  80.5908945 120.1904704  39.2992493  81.4054568
 119.3285736  40.3970216  80.8190206 114.9454255  29.4544586  92.1624828
 114.8074053  28.7224825  92.7636367 115.8559179  29.3653486  91.8809015
 117.5736556  29.1664545  91.6508507 118.2836174  28.5257738  91.6095126
 117.5305864  29.4177440  92.5734688 114.5814033  42.9193813  87.3648805
 114.8210632  43.5512337  88.0427824 113.7383230  42.5681853  87.6514165
 115.6967749  25.6118415  76.0330610 114.8197215  25.4907215  75.6692857
 116.1725502  24.8204493  75.7809499 107.2169889  30.3995574  86.1272118
 107.9040929  30.0857304  85.5393133 107.0618018  31.3036939  85.8539369
 112.0204611  25.2885771  90.5557141 111.9362800  24.6811440  89.8207551
 111.1987318  25.7794789  90.5566638 119.0941895  38.7272935  89.7690309
 119.0212067  39.5327906  90.2809614 118.6519288  38.9264901  88.9438331
 118.8831675  37.9644705  83.2793131 118.0999197  38.5066385  83.3731355
 119.5824420  38.4818685  83.6787372 118.7763294  25.9156717  85.6499021
 118.4061081  25.3627758  86.3379927 119.2722386  25.3114851  85.0974021
 116.6052492  36.3754212  92.7454039 117.3061952  37.0090695  92.8983433
 116.1347607  36.7168944  91.9849678 112.2020210  35.9090567  89.6785142
 112.7873647  35.1634255  89.8113046 112.0045049  36.2194524  90.5621805
 115.0558866  38.9441815  84.6947584 114.3869241  39.4287943  84.2111624
 114.9171735  39.1911035  85.6090963 106.7937865  28.4796168  88.3989585
 106.8321965  27.9459758  89.1926703 106.2878158  27.9531373  87.7800562
 119.1964134  40.9785558  91.2930242 119.7482442  41.1417180  92.0579328
 119.5370328  41.5689996  90.6210267 114.1728627  23.3260708  91.8952127
 114.2369954  24.1875539  91.4829525 114.1095748  22.7134710  91.1624486
 110.4246443  27.2060270  81.4743516 110.7199884  26.2970948  81.4210570
 109.5234478  27.1848009  81.1524518 113.9540690  25.2816266  87.4571065
 113.2327275  25.8952234  87.3178538 114.7433945  25.8174031  87.3787711
 112.1534284  24.8874368  81.5982841 111.8246990  24.0071746  81.4157947
 112.5073655  24.8322036  82.4859231 115.2676107  25.1747337  81.9658319
 115.6072180  25.7033259  81.2436927 115.7148228  25.5127743  82.7416886
 117.2544255  23.6721959  80.1651612 117.9752617  24.0503212  79.6615329
 116.6309559  24.3910836  80.2686590 116.1374599  27.3352821  87.6780689
 115.9919180  27.6493124  88.5704970 115.6599802  27.9537721  87.1251587
 117.9970982  24.3255369  87.7261578 117.9832550  23.4296462  87.3893876
 118.7143410  24.3326033  88.3599864 110.6120261  29.8758165  90.6168350
 110.0673729  30.6517973  90.7488624 111.4899611  30.2228970  90.4587471
 117.4007878  23.2069749  82.9949148 117.5223789  22.2786396  83.1940036
 117.1109920  23.2208435  82.0827464 111.3986283  29.0028062  93.5098507
 110.6568019  29.1510697  94.0963137 111.0779027  29.2636327  92.6465256
 119.3429945  38.5444040  93.3078897 119.6517072  38.2993187  94.1801596
 120.1405427  38.7490678  92.8197767 119.3650558  40.6981950  85.5384273
 118.9255548  40.2058328  86.2317130 120.1158674  40.1554917  85.2976348
 111.8442897  36.8893490  85.5408901 112.6700916  36.5897262  85.1607545
 111.4936949  36.1201113  85.9898690 116.8124430  36.2419959  87.6106575
 116.1904439  35.5790664  87.3108803 117.4829297  36.2681091  86.9280223
 110.0451502  34.8079817  86.4997835 109.2083410  34.3801991  86.3181836
 110.0175147  35.0012260  87.4368626 116.3737937  34.7923882  81.0865035
 116.5226057  35.4759346  80.4331708 117.1804380  34.7728972  81.6014491
 114.1290570  30.8189060  82.0926104 113.8836612  29.9151390  82.2906315
 114.2986484  30.8206210  81.1505582 113.3986217  26.5517417  79.5912266
 112.7055462  26.6261772  78.9352302 113.1537969  25.7877761  80.1133783
 119.8733342  37.2872012  78.5576783 119.3007309  37.9062200  78.1047255
 120.4466136  37.8371374  79.0916705 118.4423058  26.5482802  75.8347721
 117.5354513  26.2515914  75.9110434 118.7199039  26.2512620  74.9682007
 109.3600998  27.8689165  86.2846767 109.0403782  27.0154473  85.9921141
 108.8134426  28.0837743  87.0404734 113.1380906  30.5851606  90.0016274
 113.3566915  31.5168714  90.0204307 113.5506680  30.2259580  90.7871077
 117.2121842  23.4069737  75.9759700 118.0741006  23.7324635  76.2355517
 117.3972187  22.6201233  75.4632766 109.2289258  31.4892077  88.2539889
 108.5352730  31.0746029  87.7409843 109.9762249  31.5312613  87.6573307
 111.1426001  31.4210330  86.1305903 111.1196689  31.5198018  85.1787787
 111.4526637  32.2675481  86.4523070 113.8013379  33.4786485  90.2452518
 114.7556632  33.4470428  90.1782449 113.6025902  33.0177109  91.0602744
 114.3912761  32.0487601  92.8123316 115.2105650  32.5431680  92.8358153
 114.6649568  31.1319570  92.7840883 112.1563607  39.0206105  87.2622716
 112.0218075  38.2606506  86.6960714 111.7395670  39.7447005  86.7951505
 115.3132733  39.9175422  87.4741158 115.1965117  40.8620854  87.3719849
 114.4925179  39.6148983  87.8626958 109.6447675  26.3825735  93.5115513
 110.2906539  25.8724689  94.0002738 109.4364826  27.1194417  94.0858938
 118.1651285  20.6465780  79.2639409 118.1529955  21.5907620  79.4207680
 119.0574707  20.4635925  78.9698870 116.3387247  40.5703684  90.6897087
 117.2414494  40.6027294  91.0063582 116.1124617  39.6404135  90.7043423
 118.0940849  39.3234670  87.3507165 117.1436480  39.3236532  87.2371538
 118.3973336  38.5767405  86.8343200 118.0563643  45.7287492  86.1272118
 118.7434683  45.4149222  85.5393133 117.9011772  46.6328857  85.8539369
 117.6331620  43.8088085  88.3989585 117.6715719  43.2751676  89.1926703
 117.1271912  43.2823291  87.7800562 120.1994753  43.1981083  86.2846767
 119.8797537  42.3446391  85.9921141 119.6528181  43.4129661  87.0404734
 116.9427205  17.1770541  69.9445910 116.8651235  18.1278366  70.0234391
 116.3388849  16.8316414  70.6020836 114.5814035  19.9255935  74.0894112
 114.8210633  20.5574459  74.7673131 113.7383231  19.5743975  74.3759471
 119.1964135  17.9847681  78.0175549 119.7482443  18.1479302  78.7824634
 119.5370329  18.5752119  77.3455574 112.1563609  16.0268227  73.9868022
 112.0218077  15.2668628  73.4206020 111.7395671  16.7509127  73.5196811
 115.3132734  16.9237544  74.1986465 115.1965119  17.8682977  74.0965155
 114.4925181  16.6211106  74.5872264 116.3387249  17.5765806  77.4142393
 117.2414495  17.6089417  77.7308888 116.1124619  16.6466257  77.4288729
 118.0563645  22.7349615  72.8517424 118.7434685  22.4211345  72.2638440
 117.9011773  23.6390979  72.5784676 117.6331621  20.8150208  75.1234891
 117.6715720  20.2813799  75.9172009 117.1271914  20.2885413  74.5045869
 120.1994754  20.2043205  73.0092074 119.8797538  19.3508514  72.7166448
 119.6528182  20.4191783  73.7650041  45.9405446  70.2608616 131.4780636
  45.2667145  70.5640313 132.0865594  46.3271268  71.0637697 131.1286094
  49.9062187  67.8394100 132.7520460  50.6013092  68.4600792 132.9707774
  50.2485337  66.9889451 133.0272838  47.2174315  68.2293002 132.7904136
  48.1504989  68.1638563 132.9937011  47.1297528  69.0649268 132.3318668
  49.8462332  67.5458872 129.7508083  49.7675964  67.2118735 130.6443841
  50.6671999  68.0380640 129.7499555  47.4166284  64.8626867 129.3718061
  48.1202134  65.0676870 129.9875717  46.6928933  65.4303629 129.6367145
  50.6605217  71.5994171 129.1349381  49.7834683  71.4782972 128.7711627
  51.1362970  70.8080249 128.8828269  53.4060526  72.5358558 128.9366491
  52.4991981  72.2391671 129.0129205  53.6836507  72.2388376 128.0700777
  52.1759310  69.3945493 129.0778470  53.0378474  69.7200392 129.3374288
  52.3609655  68.6076989 128.5651536  53.1288753  66.6341536 132.3658179
  53.1167423  67.5783376 132.5226450  54.0212175  66.4511682 132.0717640
  45.9405448  47.2670739 118.2025943  45.2667146  47.5702436 118.8110901
  46.3271270  48.0699819 117.8531400  49.9062188  44.8456222 119.4765766
  50.6013093  45.4662915 119.6953081  50.2485339  43.9951574 119.7518144
  47.2174317  45.2355124 119.5149442  48.1504990  45.1700686 119.7182318
  47.1297530  46.0711391 119.0563975  49.8462333  44.5520994 116.4753390
  49.7675965  44.2180858 117.3689148  50.6672000  45.0442762 116.4744862
  47.4166285  41.8688990 116.0963368  48.1202135  42.0738992 116.7121024
  46.6928934  42.4365752 116.3612452  57.9537258  52.8241170 128.2417005
  58.5915668  52.7047918 127.5380345  57.8358101  53.7722014 128.3004957
  50.6213780  54.6304075 124.1675421  50.0578645  54.5394012 123.3991708
  50.5066175  53.8103979 124.6477913  56.2013338  58.2975042 119.4789885
  55.5501318  58.8829123 119.0923899  56.9957701  58.8281237 119.5384923
  50.1268965  55.3864180 119.8777020  50.8999841  54.8393167 119.7389896
  50.4794364  56.2508429 120.0891481  52.4635243  51.5456846 117.5095470
  52.7160764  51.0238367 116.7478933  51.5259802  51.3822991 117.6122153
  57.5078526  50.5492624 125.3170213  58.2941615  50.1312047 124.9660630
  57.7717230  51.4538716 125.4851861  57.6788603  55.9865474 120.0158870
  57.0434436  56.0600101 120.7279774  57.3486010  56.5759073 119.3377949
  62.9086953  50.4867857 126.2203191  63.6412125  49.9167074 126.4541021
  62.1526309  50.0989458 126.6609697  52.1831532  53.4484952 119.7119845
  52.0667790  52.7729855 120.3800929  52.2933792  52.9617326 118.8951998
  54.5263073  52.9095099 123.4166534  54.1621280  52.3825720 124.1279455
  55.3830189  52.5193568 123.2433019  54.1668560  47.9384998 118.4127882
  54.3342962  48.8065235 118.7798353  53.9765729  48.1012280 117.4889172
  54.1457781  50.3942656 119.3974549  54.0257406  50.8399707 120.2360029
  53.4510369  50.7427974 118.8388087  51.9064673  63.1646298 123.0464680
  51.8288703  64.1154123 123.1253161  51.3026317  62.8192170 123.7039607
  59.8442847  50.8664129 120.2254883  60.7560703  51.0991516 120.0502581
  59.3352494  51.4501173 119.6629962  58.4512429  55.8489948 127.6168465
  57.8221292  56.0135662 126.9144533  58.0638091  56.2631557 128.3879429
  62.3301661  56.7844385 124.9712828  61.6452699  57.1643287 124.4209862
  62.4145511  57.3939712 125.7044776  54.0040391  55.5864356 124.8818550
  54.4678737  55.8652059 124.0923172  53.7397189  54.6847800 124.6991640
  52.9409277  51.7087508 121.6908115  53.6433321  52.1608552 122.1582041
  52.6089906  51.0671327 122.3188008  60.6998421  57.3076300 129.7430529
  61.5215864  56.9056487 129.4613211  60.6960824  57.2044534 130.6946645
  68.7904414  53.6515048 126.0915501  68.0368122  53.0822446 125.9359505
  68.9251955  53.6177713 127.0386136  54.1803042  58.5228451 121.7670220
  54.0448717  59.3679986 122.1955068  54.7212854  58.7247728 121.0036154
  47.6332439  56.0403889 122.3398145  48.1456960  56.8347139 122.4903710
  48.2855152  55.3430179 122.2731747  49.4427324  59.1569645 124.4220898
  49.6193952  60.0787610 124.2341882  50.2384157  58.8428064 124.8515278
  45.5981356  54.3692543 123.1157716  46.4356578  54.7789551 122.8991424
  45.7759624  53.4291985 123.0857910  57.4945788  52.0367624 118.8041549
  56.9792412  52.8072228 119.0429936  57.2223097  51.3632760 119.4274610
  62.4680062  54.7899978 120.7394722  61.6909505  54.4511138 120.2949884
  63.1471543  54.7952601 120.0649687  57.2832091  49.9094716 120.6301330
  56.9782227  50.2240865 121.4811473  58.2362533  49.9876136 120.6728663
  55.7278523  56.0684939 122.2794284  55.1999885  55.3337699 121.9667521
  55.2266026  56.8459615 122.0334252  60.7071369  54.2633960 127.3961330
  60.0495044  54.9533221 127.4841459  61.5111768  54.6530391 127.7395317
  59.5176828  52.6178332 125.4465272  60.0308710  53.2508324 125.9486982
  60.1678052  52.0179528 125.0808632  50.7866838  48.7609066 118.6596781
  49.9504150  49.0983753 118.9806055  50.6471608  48.6258046 117.7223918
  53.8731123  53.8865149 115.2829257  52.9658185  53.6554403 115.4820406
  54.3702155  53.0902769 115.4703238  56.7799202  62.5962656 118.2025943
  56.1060901  62.8994353 118.8110901  57.1665024  63.3991737 117.8531400
  56.7792707  51.4919203 122.8226293  57.5264526  52.0040601 122.5133415
  57.0484296  51.1703256 123.6830686  55.0519357  53.9877744 119.8053247
  54.1430576  53.7036777 119.9025717  55.0814441  54.4076823 118.9456554
  60.2838624  57.5984334 123.5744415  59.8300951  56.7575244 123.6309605
  59.6532591  58.2345732 123.9119195  59.2271544  48.5276320 124.8045082
  58.4894301  48.0153706 125.1355325  59.4798317  48.0876701 123.9928359
  58.7271563  59.4360830 124.5094233  59.0194538  59.9965887 123.7906598
  59.2370184  59.7289391 125.2647392  54.7495445  55.5286488 117.1441326
  54.3114875  54.8122347 116.6846963  55.4905885  55.7562603 116.5826417
  51.5396611  50.2183425 123.6653421  50.7264476  50.5177595 124.0718613
  52.0355605  49.8239113 124.3827903  53.6905189  60.2141181 125.5987686
  53.6481367  60.4402028 124.6696218  54.6067887  59.9804556 125.7473487
  62.8668559  53.8043685 123.2017644  62.7286458  53.9945281 122.2738833
  62.5104778  54.5663068 123.6585695  62.8937939  55.8720212 128.2128916
  63.3274446  55.7795501 129.0611970  63.6069520  55.8477712 127.5748932
  51.8070989  57.0904210 125.3949649  52.6011588  56.5954531 125.1932224
  51.0962682  56.5622074 125.0317354  56.6265834  59.4722306 129.7462016
  56.6802856  60.0413242 130.5139732  55.7580615  59.6424191 129.3816053
  48.1153753  51.2347292 121.4709401  47.1851341  51.1731748 121.6879363
  48.2111225  50.7123245 120.6746043  63.7553489  55.9143913 130.7461801
  63.9489379  56.8189723 130.9921076  63.6554107  55.4551332 131.5800386
  54.9790417  62.7642329 120.4173022  55.1542173  62.2930372 121.2318645
  54.2923205  63.3908095 120.6454283  55.9347481  57.0414835 126.4636324
  55.5997313  57.0015605 127.3593973  55.4351426  56.3759551 125.9906734
  58.8706672  54.3870869 116.7373383  58.2535843  53.6617698 116.6406436
  58.4023161  55.1480230 116.3940457  49.5451503  65.9131692 127.1912882
  49.7848101  66.5450216 127.8691901  48.7020699  65.5619732 127.4778242
  50.6605218  48.6056294 115.8594687  49.7834684  48.4845095 115.4956934
  51.1362971  47.8142372 115.6073576  54.0579365  61.7210814 129.5954386
  53.9849536  62.5265786 130.1073691  53.6156758  61.9202780 128.7702408
  53.8469144  60.9582584 123.1057208  53.0636666  61.5004264 123.1995432
  54.5461889  61.4756564 123.5051449  65.0095552  52.4717579 127.3909705
  64.9985428  53.3542295 127.0203638  64.1412931  52.1189130 127.1964242
  56.5178048  61.6197648 131.7512545  57.2306020  62.2545113 131.6788447
  56.0268077  61.7161514 130.9352547  58.2395575  55.5248901 123.3229837
  57.3051854  55.6450363 123.1534541  58.4172243  54.6221368 123.0589847
  61.6268126  51.3666220 123.8579871  62.0928579  52.1994212 123.7840174
  62.0775627  50.9011202 124.5625129  59.6944357  57.7110041 120.8566023
  59.9704201  57.5966636 121.7659897  58.8248856  57.3127526 120.8178196
  56.3298421  61.9596392 124.4998837  56.5120816  61.1418048 124.9626589
  57.1531407  62.1764085 124.0623727  56.6640587  60.8864577 121.7613885
  57.1928353  60.3757032 121.1484047  56.9268807  60.5707108 122.6259418
  50.0196335  61.9379694 124.5211661  49.3506710  62.4225822 124.0375701
  49.8809205  62.1848915 125.4355040  54.1601603  63.9723438 131.1194319
  54.7119911  64.1355059 131.8843405  54.5007797  64.5627875 130.4474344
  45.3883912  50.1998149 121.3007593  45.6837353  49.2908827 121.2474647
  44.4871948  50.1785888 120.9788595  57.2969991  61.9205413 128.1058002
  57.1721130  61.1195153 127.5968947  57.9549082  62.4151606 127.6171971
  59.3604899  59.7214433 129.7337552  58.4135235  59.6019784 129.6615878
  59.7087672  58.8336931 129.8163813  56.3651332  59.5167149 125.9341904
  56.2176295  58.5883857 126.1149474  57.1904826  59.5387240 125.4498979
  50.2313577  48.1685216 121.7922396  50.5709649  48.6971138 121.0701004
  50.6785697  48.5065623 122.5680963  59.9685454  60.3395708 127.0206777
  60.8932002  60.1338569 126.8831228  59.8000758  60.0912109 127.9296118
  52.2181724  46.6659838 119.9915689  52.9390086  47.0441091 119.4879406
  51.5947028  47.3848715 120.0950667  56.3612847  47.3704987 120.9274021
  56.5776461  48.2529625 120.6262849  55.8806914  46.9791200 120.1979663
  59.7580770  60.8581376 122.3768868  59.9317648  60.2927798 121.6242720
  60.2509662  61.6582270 122.1948358  65.6120162  53.6217799 123.9959168
  66.0551308  52.8725124 123.5978291  64.7346672  53.6127935 123.6132900
  60.7455943  60.1748140 119.4765766  61.4406848  60.7954833 119.6953081
  61.0879093  59.3243491 119.7518144  62.6447366  57.6247846 121.0053097
  63.1698690  57.9635118 120.2802417  62.5569719  56.6894861 120.8216232
  54.3288027  63.6919829 125.3648350  53.8893017  63.1996207 126.0581207
  55.0796144  63.1492796 125.1240425  46.8080366  59.8831370 125.3672978
  47.6338386  59.5835142 124.9871622  46.4574418  59.1138992 125.8162767
  51.7761899  59.2357838 127.4370652  51.1541908  58.5728543 127.1372880
  52.4466766  59.2618970 126.7544300  51.3375406  57.7861761 120.9129112
  51.4863526  58.4697226 120.2595785  52.1441849  57.7666851 121.4278568
  65.1553026  55.0923037 126.3881615  65.9899918  55.5312841 126.5519176
  65.2912155  54.6161690 125.5689861  49.0928039  53.8126939 121.9190181
  48.8474081  52.9089269 122.1170392  49.2623953  53.8144089 120.9769659
  48.3623686  49.5455296 119.4176343  47.6692931  49.6199651 118.7616379
  48.1175438  48.7815640 119.9397860  54.8370811  60.2809892 118.3840860
  54.2644778  60.9000079 117.9311332  55.4103605  60.8309253 118.9180782
  58.0568071  60.5647042 119.5149442  58.9898744  60.4992603 119.7182318
  57.9691284  61.4003309 119.0563975  60.6856088  59.8812912 116.4753390
  60.6069719  59.5472776 117.3689148  61.5065755  60.3734680 116.4744862
  63.3834279  52.7474651 129.6829708  63.3510599  51.8090652 129.8689392
  63.9934903  52.8258688 128.9495533  55.2217610  51.6170704 115.7256912
  56.1676715  51.4876913 115.7945330  54.8431855  50.8785366 116.2026341
  69.2010829  53.8090658 128.8235745  69.9314217  53.5475946 129.3843448
  68.5917774  53.0719380 128.8637813  67.2826126  51.9498521 129.4210196
  66.5559290  51.8154486 128.8126688  66.8673413  52.2575349 130.2266914
  53.4060527  49.5420681 115.6611798  52.4991982  49.2453794 115.7374511
  53.6836508  49.2450499 114.7946084  52.1759312  46.4007616 115.8023777
  53.0378476  46.7262514 116.0619594  52.3609656  45.6139112 115.2896843
  60.3291948  45.2736142 122.9459000  59.7490617  45.9320947 122.5637052
  60.0627881  44.4513487 122.5346417  59.1116826  47.4336233 122.0015348
  58.2242681  47.7185884 121.7835543  59.5270815  47.2729996 121.1542625
  62.4631362  47.4582754 125.7169687  63.2391752  47.9479206 125.9894304
  61.7379496  47.8840808 126.1741557  64.9003921  48.1710373 126.7743628
  65.4948412  47.9306109 126.0636936  64.9730505  47.4517504 127.4017164
  47.1201077  62.0143984 127.0886793  46.9855545  61.2544385 126.5224791
  46.7033139  62.7384884 126.6215582  58.2560040  57.1980908 116.0963368
  58.9595890  57.4030910 116.7121024  57.5322688  57.7657669 116.3612452
  59.0857850  52.9490769 122.2165638  59.0293051  53.4059320 121.3773271
  59.6386192  52.1881453 122.0388481  62.8962656  48.7380501 123.0415758
  62.6399590  48.3377136 123.8723965  62.2715524  49.4524295 122.9165897
  67.2074994  51.4776574 125.5487049  66.6474552  51.5469763 126.3218611
  66.6018497  51.3017559 124.8286545  50.2770202  62.9113301 127.3005235
  50.1602587  63.8558734 127.1983926  49.4562649  62.6086863 127.6891035
  60.1646737  57.6363437 118.1461828  60.9992341  57.2044635 117.9639303
  60.0031080  57.4645450 119.0738723  59.8192629  54.1395550 119.5118167
  59.7641433  53.9739821 118.5706612  59.1938684  54.8471583 119.6680357
  53.1288755  43.6403659 119.0903486  53.1167425  44.5845499 119.2471757
  54.0212177  43.4573804 118.7962947  51.3024717  63.5641563 130.5161164
  52.2051963  63.5965173 130.8327659  51.0762087  62.6342014 130.5307500
  53.0578319  62.3172549 127.1771242  52.1073950  62.3174411 127.0635615
  53.3610805  61.5705284 126.6607277  61.4607534  69.9595992 124.1675421
  60.8972399  69.8685929 123.3991708  61.3459929  69.1395897 124.6477913
  59.0071966  71.4547184 127.0059641  59.7993258  71.1138009 126.5905940
  59.2468616  71.5642159 127.9261794  67.0407093  73.6266960 119.4789885
  66.3895073  74.2121040 119.0923899  67.8351456  74.1573155 119.5384923
  60.9662720  70.7156097 119.8777020  61.7393596  70.1685084 119.7389896
  61.3188119  71.5800347 120.0891481  63.3028998  66.8748763 117.5095470
  63.5554518  66.3530285 116.7478933  62.3653557  66.7114909 117.6122153
  68.3472281  65.8784542 125.3170213  69.1335370  65.4603965 124.9660630
  68.6110985  66.7830634 125.4851861  68.5182358  71.3157392 120.0158870
  67.8828191  71.3892019 120.7279774  68.1879764  71.9050991 119.3377949
  63.0225287  68.7776869 119.7119845  62.9061545  68.1021773 120.3800929
  63.1327546  68.2909243 118.8951998  65.3656827  68.2387016 123.4166534
  65.0015035  67.7117637 124.1279455  66.2223943  67.8485485 123.2433019
  65.0062314  63.2676916 118.4127882  65.1736717  64.1357153 118.7798353
  64.8159484  63.4304198 117.4889172  61.2150129  68.1807692 126.1130417
  60.2900626  68.0483906 126.3208109  61.4634542  68.9601911 126.6100360
  64.9851535  65.7234574 119.3974549  64.8651161  66.1691624 120.2360029
  64.2904124  66.0719891 118.8388087  58.5758940  67.8240965 126.9474206
  58.7051321  68.0775444 127.8613618  57.8956391  68.4168673 126.6278861
  70.6836601  66.1956047 120.2254883  71.5954458  66.4283434 120.0502581
  70.1746249  66.7793091 119.6629962  68.0272576  62.3714083 128.4744744
  67.1657055  62.6695336 128.7661482  68.0535011  62.5884482 127.5425777
  64.8434146  70.9156273 124.8818550  65.3072491  71.1943976 124.0923172
  64.5790944  70.0139718 124.6991640  63.7803032  67.0379426 121.6908115
  64.4827075  67.4900469 122.1582041  63.4483660  66.3963245 122.3188008
  57.5228366  65.2962978 126.9925249  56.7327420  65.5520507 126.5165359
  58.0139613  66.1111316 127.0977289  59.4743111  65.6607558 123.9508725
  58.6774274  65.7726252 124.4692221  59.2468703  65.9994210 123.0849616
  55.8066069  65.5493469 129.4240239  56.0574107  66.4340479 129.6897815
  56.3425617  65.3698070 128.6515331  65.0196796  73.8520368 121.7670220
  64.8842471  74.6971904 122.1955068  65.5606609  74.0539646 121.0036154
  58.4726194  71.3695806 122.3398145  58.9850714  72.1639057 122.4903710
  59.1248907  70.6722097 122.2731747  60.2821078  74.4861563 124.4220898
  60.4587707  75.4079527 124.2341882  61.0777912  74.1719982 124.8515278
  68.3689260  57.3750930 130.2969114  68.0253529  58.2652572 130.2208224
  68.7368223  57.1852588 129.4338699  56.4375111  69.6984461 123.1157716
  57.2750333  70.1081469 122.8991424  56.6153378  68.7583903 123.0857910
  68.3339543  67.3659541 118.8041549  67.8186166  68.1364146 119.0429936
  68.0616851  66.6924677 119.4274610  65.9186654  62.2109242 123.8626787
  65.0628250  61.8216092 123.6832426  66.3313605  62.2901203 123.0026573
  67.4485800  59.7455585 128.2618347  66.9450596  59.7085721 127.4486152
  67.7416407  60.6548328 128.3215004  63.6928686  59.8294315 127.2684529
  64.5581683  59.6337124 126.9090418  63.7606195  59.6004667 128.1953885
  73.3073817  70.1191896 120.7394722  72.5303260  69.7803055 120.2949884
  73.9865298  70.1244519 120.0649687  68.1225846  65.2386633 120.6301330
  67.8175981  65.5532783 121.4811473  69.0756288  65.3168053 120.6728663
  66.5672278  71.3976857 122.2794284  66.0393639  70.6629616 121.9667521
  66.0659780  72.1751533 122.0334252  61.2991005  62.0596523 124.6400895
  61.8734757  61.8371704 123.9074088  61.8861988  62.1285218 125.3929497
  61.6260592  64.0900984 118.6596781  60.7897905  64.4275671 118.9806055
  61.4865362  63.9549964 117.7223918  63.6013673  58.9337772 123.3675965
  62.9478085  58.6186789 122.7432580  63.5594147  58.3113512 124.0935788
  64.7124878  69.2157067 115.2829257  63.8051940  68.9846320 115.4820406
  65.2095910  68.4194686 115.4703238  67.6192957  77.9254574 118.2025943
  66.9454655  78.2286271 118.8110901  68.0058779  78.7283655 117.8531400
  66.8351413  65.4219705 127.6923612  65.9173975  65.6434652 127.5345301
  67.2511557  65.4966016 126.8335320  67.6186461  66.8211121 122.8226293
  68.3658280  67.3332518 122.5133415  67.8878051  66.4995174 123.6830686
  65.8913111  69.3169662 119.8053247  64.9824331  69.0328695 119.9025717
  65.9208195  69.7368740 118.9456554  70.0665298  63.8568237 124.8045082
  69.3288055  63.3445624 125.1355325  70.3192072  63.4168619 123.9928359
  70.1676926  56.6344489 125.3986851  70.4735802  55.7741853 125.1112766
  70.8929530  57.2262110 125.1985845  56.4601282  67.0375176 123.7868449
  56.2625681  66.4444537 123.0619516  55.9047946  66.7327386 124.5044388
  64.4398005  66.9298282 125.9063042  64.4946615  65.9772119 125.8305519
  63.6289207  67.0857722 126.3904341  65.5889199  70.8578406 117.1441326
  65.1508629  70.1414264 116.6846963  66.3299640  71.0854520 116.5826417
  62.3790365  65.5475342 123.6653421  61.5658231  65.8469513 124.0718613
  62.8749359  65.1531031 124.3827903  61.8704440  63.1193698 129.2814656
  62.5103819  62.9782457 128.5837620  61.0381971  62.8328211 128.9053258
  62.6464744  72.4196128 125.3949649  63.4405342  71.9246448 125.1932224
  61.9356436  71.8913991 125.0317354  58.9547507  66.5639210 121.4709401
  58.0245095  66.5023665 121.6879363  59.0504979  66.0415163 120.6746043
  58.8733056  63.0894023 124.0587643  59.1339874  64.0039356 123.9496803
  59.6950229  62.6218465 124.2084256  60.3457982  64.5031780 131.2286468
  61.0181035  64.2949142 130.5799116  59.5187768  64.3053866 130.7891700
  65.8184172  78.0934247 120.4173022  65.9935928  77.6222290 121.2318645
  65.1316960  78.7200013 120.6454283  69.7100427  69.7162787 116.7373383
  69.0929597  68.9909615 116.6406436  69.2416915  70.4772147 116.3940457
  61.4998973  63.9348211 115.8594687  60.6228439  63.8137012 115.4956934
  61.9756726  63.1434290 115.6073576  53.0201113  68.7225371 125.9536195
  53.7072153  68.4087101 125.3657210  52.8649241  69.6266736 125.6803446
  57.8235835  63.6115568 130.3821218  57.7394024  63.0041237 129.6471628
  57.0018541  64.1024586 130.3830715  67.9959549  62.0969131 125.7491413
  68.4928248  61.3439094 125.4292484  67.2246530  62.1333448 125.1834623
  69.0789329  70.8540819 123.3229837  68.1445608  70.9742281 123.1534541
  69.2565998  69.9513285 123.0589847  64.5794518  64.2386514 125.4763098
  64.2092305  63.6857555 126.1644004  65.0753610  63.6344648 124.9238098
  72.4661881  66.6958138 123.8579871  72.9322333  67.5286129 123.7840174
  72.9169381  66.2303119 124.5625129  70.5338112  73.0401959 120.8566023
  70.8097956  72.9258554 121.7659897  69.6642611  72.6419444 120.8178196
  70.4378544  59.0638725 127.8970772  69.5241623  59.2942952 128.0652979
  70.8671645  59.1477169 128.7484805  52.5969089  66.8025965 128.2253662
  52.6353188  66.2689555 129.0190780  52.0909382  66.2761170 127.6064639
  59.9759851  61.6490505 131.7216204  60.0401178  62.5105336 131.3093602
  59.9126971  61.0364507 130.9888563  56.2277666  65.5290067 121.3007593
  56.5231108  64.6200745 121.2474647  55.3265702  65.5077806 120.9788595
  59.7571913  63.6046063 127.2835142  59.0358499  64.2182031 127.1442615
  60.5465169  64.1403828 127.2051788  57.9565508  63.2104164 121.4246918
  57.6278214  62.3301543 121.2422024  58.3104879  63.1551833 122.3123308
  61.0707331  63.4977134 121.7922396  61.4103404  64.0263055 121.0701004
  61.5179452  63.8357540 122.5680963  63.7650772  61.8814185 131.2425464
  63.4247592  61.0821998 131.6446144  63.0589778  62.1815896 130.6702297
  64.4167244  58.9663497 129.6952787  65.2393313  58.4923976 129.5731677
  64.6605307  59.7453981 130.1951473  63.0575478  61.9951756 119.9915689
  63.7783841  62.3733009 119.4879406  62.4340782  62.7140633 120.0950667
  67.2006601  62.6996905 120.9274021  67.4170216  63.5821543 120.6262849
  66.7200668  62.3083118 120.1979663  61.9405823  65.6582618 127.5044766
  61.7950403  65.9722921 128.3969047  61.4631026  66.2767518 126.9515664
  63.8002205  62.6485166 127.5525655  63.7863774  61.7526259 127.2157953
  64.5174634  62.6555830 128.1863941  65.6528336  63.0822506 129.5978783
  65.3946114  64.0039577 129.5963113  65.1213377  62.6852941 130.2879247
  56.4151485  68.1987962 130.4432427  55.8704953  68.9747770 130.5752701
  57.2930835  68.5458767 130.2851548  63.2039101  61.5299546 122.8213225
  63.3255013  60.6016192 123.0204113  62.9141144  61.5438232 121.9091541
  66.0730292  59.2154457 125.9579945  66.0951989  59.2793790 125.0031925
  66.4898351  58.3758965 126.1520451  71.5849697  75.5040058 119.4765766
  72.2800602  76.1246750 119.6953081  71.9272848  74.6535409 119.7518144
  73.4841121  72.9539763 121.0053097  74.0092445  73.2927036 120.2802417
  73.3963473  72.0186779 120.8216232  57.6474120  75.2123287 125.3672978
  58.4732140  74.9127059 124.9871622  57.2968172  74.4430910 125.8162767
  55.8482725  73.1309614 126.3261912  55.0114634  72.7031788 126.1445913
  55.8206371  73.3242057 127.2632703  62.1769160  73.1153679 120.9129112
  62.3257281  73.7989143 120.2595785  62.9835604  73.0958769 121.4278568
  59.9321793  69.1418857 121.9190181  59.6867835  68.2381187 122.1170392
  60.1017708  69.1436007 120.9769659  59.2017441  64.8747214 119.4176343
  58.5086686  64.9491569 118.7616379  58.9569193  64.1107558 119.9397860
  67.8731097  56.4342815 126.8215834  68.1532851  55.7666005 127.4476260
  68.6581704  56.6271911 126.3090497  65.6764566  75.6101809 118.3840860
  65.1038533  76.2291996 117.9311332  66.2497360  76.1601171 118.9180782
  68.8961826  75.8938959 119.5149442  69.8292499  75.8284521 119.7182318
  68.8085039  76.7295226 119.0563975  71.5249842  75.2104830 116.4753390
  71.4463474  74.8764693 117.3689148  72.3459509  75.7026598 116.4744862
  66.0611364  66.9462622 115.7256912  67.0070469  66.8168830 115.7945330
  65.6825609  66.2077284 116.2026341  72.0333249  58.6118628 125.6883804
  71.8358070  58.3033716 126.5727136  72.6432955  59.3380267 125.8181734
  64.2454282  64.8712598 115.6611798  63.3385737  64.5745711 115.7374511
  64.5230263  64.5742417 114.7946084  55.1632222  66.1918962 126.1110844
  54.8435006  65.3384270 125.8185218  54.6165650  66.4067540 126.8668811
  65.8616347  59.4149488 121.8156039  65.0517076  59.0696573 122.1911285
  66.5500764  59.1057032 122.4043650  67.7906896  58.4927535 123.4380336
  68.3437934  58.9122988 124.0970359  68.0276982  57.5663283 123.4803292
  63.0153066  61.7299534 115.8023777  63.8772230  62.0554432 116.0619594
  63.2003410  60.9431030 115.2896843  55.0320482  69.8121873 128.0803966
  54.3383953  69.3975826 127.5673920  55.7793473  69.8542410 127.4837385
  71.1685703  60.6028060 122.9459000  70.5884372  61.2612864 122.5637052
  70.9021635  59.7805405 122.5346417  69.6189269  60.0033118 125.1480320
  70.1189047  60.1149652 124.3394639  70.2624877  59.6994171 125.7881129
  56.9457224  69.7440127 125.9569980  56.9227913  69.8427814 125.0051864
  57.2557861  70.5905278 126.2787147  69.9510581  62.7628151 122.0015348
  69.0636436  63.0477801 121.7835543  70.3664570  62.6021914 121.1542625
  73.3025117  62.7874672 125.7169687  74.0785507  63.2771124 125.9894304
  72.5773251  63.2132726 126.1741557  69.0953794  72.5272825 116.0963368
  69.7989644  72.7322828 116.7121024  68.3716443  73.0949587 116.3612452
  69.9251604  68.2782686 122.2165638  69.8686806  68.7351238 121.3773271
  70.4779947  67.5173371 122.0388481  73.7356410  64.0672418 123.0415758
  73.4793345  63.6669054 123.8723965  73.1109278  64.7816212 122.9165897
  71.0040492  72.9655354 118.1461828  71.8386095  72.5336553 117.9639303
  70.8424834  72.7937368 119.0738723  70.6586384  69.4687468 119.5118167
  70.6035188  69.3031739 118.5706612  70.0332439  70.1763501 119.6680357
  63.9682509  58.9695577 119.0903486  63.9561179  59.9137417 119.2471757
  64.8605931  58.7865722 118.7962947  67.7834629  55.5638353 123.3449423
  67.0167024  55.0096840 123.4906105  68.1945334  55.6360222 124.2063574
  72.3392727  79.2640129 115.8594687  71.4622193  79.1428930 115.4956934
  72.8150480  78.4726207 115.6073576  75.0848036  80.2004516 115.6611798
  74.1779491  79.9037629 115.7374511  75.3624017  79.9034334 114.7946084
  73.8546821  77.0591451 115.8023777  74.7165985  77.3846350 116.0619594
  74.0397165  76.2722947 115.2896843  74.8076264  74.2987494 119.0903486
  74.7954933  75.2429334 119.2471757  75.6999686  74.1157640 118.7962947
  45.9405449  24.2732861 104.9271250  45.2667148  24.5764558 105.5356208
  46.3271271  25.0761942 104.5776707  49.9062190  21.8518345 106.2011073
  50.6013094  22.4725038 106.4198388  50.2485340  21.0013696 106.4763451
  47.2174318  22.2417247 106.2394749  48.1504991  22.1762808 106.4427624
  47.1297531  23.0773514 105.7809281  49.8462335  21.5583117 103.1998696
  49.7675966  21.2242981 104.0934454  50.6672001  22.0504885 103.1990169
  47.4166286  18.8751112 102.8208675  48.1202137  19.0801115 103.4366330
  46.6928935  19.4427874 103.0857758  57.9537259  29.8303293 114.9662311
  58.5915669  29.7110040 114.2625652  57.8358102  30.7784137 115.0250264
  50.6213781  31.6366197 110.8920727  50.0578646  31.5456134 110.1237015
  50.5066176  30.8166102 111.3723220  56.2013340  35.3037165 106.2035192
  55.5501319  35.8891245 105.8169206  56.9957702  35.8343360 106.2630230
  50.1268967  32.3926302 106.6022326  50.8999843  31.8455289 106.4635202
  50.4794366  33.2570551 106.8136788  52.4635245  28.5518968 104.2340776
  52.7160765  28.0300490 103.4724239  51.5259804  28.3885114 104.3367460
  57.5078527  27.5554747 112.0415520  58.2941617  27.1374170 111.6905937
  57.7717232  28.4600839 112.2097168  57.6788605  32.9927597 106.7404176
  57.0434438  33.0662223 107.4525081  57.3486011  33.5821196 106.0623256
  62.9086955  27.4929980 112.9448498  63.6412126  26.9229197 113.1786328
  62.1526310  27.1051580 113.3855004  52.1831533  30.4547074 106.4365151
  52.0667791  29.7791978 107.1046236  52.2933793  29.9679448 105.6197304
  54.5263074  29.9157221 110.1411841  54.1621281  29.3887842 110.8524762
  55.3830190  29.5255690 109.9678326  54.1668561  24.9447121 105.1373189
  54.3342964  25.8127357 105.5043660  53.9765730  25.1074403 104.2134478
  54.1457782  27.4004779 106.1219856  54.0257407  27.8461829 106.9605336
  53.4510370  27.7490096 105.5633394  51.9064674  40.1708420 109.7709987
  51.8288704  41.1216245 109.8498468  51.3026318  39.8254293 110.4284913
  59.8442848  27.8726252 106.9500190  60.7560704  28.1053638 106.7747887
  59.3352495  28.4563296 106.3875268  58.4512431  32.8552070 114.3413771
  57.8221293  33.0197784 113.6389839  58.0638093  33.2693680 115.1124735
  62.3301662  33.7906508 111.6958135  61.6452701  34.1705409 111.1455168
  62.4145512  34.4001835 112.4290083  54.0040392  32.5926478 111.6063856
  54.4678738  32.8714181 110.8168479  53.7397191  31.6909923 111.4236947
  52.9409278  28.7149631 108.4153422  53.6433322  29.1670674 108.8827348
  52.6089907  28.0733449 109.0433315  60.6998422  34.3138422 116.4675836
  61.5215866  33.9118610 116.1858518  60.6960825  34.2106657 117.4191952
  68.7904415  30.6577171 112.8160807  68.0368123  30.0884569 112.6604812
  68.9251956  30.6239835 113.7631442  54.1803043  35.5290573 108.4915527
  54.0448718  36.3742109 108.9200375  54.7212856  35.7309851 107.7281461
  47.6332441  33.0466011 109.0643452  48.1456961  33.8409262 109.2149017
  48.2855153  32.3492302 108.9977053  49.4427325  36.1631768 111.1466205
  49.6193954  37.0849732 110.9587189  50.2384159  35.8490187 111.5760585
  45.5981357  31.3754666 109.8403022  46.4356579  31.7851674 109.6236730
  45.7759625  30.4354108 109.8103216  57.4945789  29.0429746 105.5286855
  56.9792413  29.8134351 105.7675243  57.2223098  28.3694882 106.1519917
  62.4680064  31.7962101 107.4640029  61.6909506  31.4573260 107.0195191
  63.1471545  31.8014724 106.7894994  57.2832093  26.9156838 107.3546637
  56.9782228  27.2302988 108.2056780  58.2362535  26.9938258 107.3973970
  55.7278524  33.0747062 109.0039591  55.1999886  32.3399821 108.6912828
  55.2266027  33.8521738 108.7579559  60.7071370  31.2696082 114.1206637
  60.0495045  31.9595344 114.2086765  61.5111770  31.6592514 114.4640623
  59.5176829  29.6240455 112.1710579  60.0308711  30.2570447 112.6732288
  60.1678053  29.0241650 111.8053939  50.7866839  25.7671189 105.3842087
  49.9504151  26.1045875 105.7051362  50.6471609  25.6320169 104.4469224
  53.8731125  30.8927272 102.0074564  52.9658186  30.6616525 102.2065713
  54.3702157  30.0964891 102.1948545  56.7799203  39.6024779 104.9271250
  56.1060902  39.9056476 105.5356208  57.1665025  40.4053859 104.5776707
  56.7792708  28.4981326 109.5471599  57.5264527  29.0102723 109.2378721
  57.0484297  28.1765379 110.4075993  55.0519358  30.9939867 106.5298554
  54.1430577  30.7098900 106.6271023  55.0814442  31.4138945 105.6701861
  60.2838625  34.6046456 110.2989721  59.8300953  33.7637366 110.3554912
  59.6532592  35.2407855 110.6364501  59.2271545  25.5338442 111.5290389
  58.4894302  25.0215829 111.8600631  59.4798319  25.0938824 110.7173666
  58.7271565  36.4422953 111.2339539  59.0194539  37.0028010 110.5151905
  59.2370185  36.7351514 111.9892698  54.7495446  32.5348610 103.8686632
  54.3114876  31.8184469 103.4092270  55.4905887  32.7624725 103.3071724
  51.5396612  27.2245547 110.3898728  50.7264478  27.5239718 110.7963920
  52.0355606  26.8301236 111.1073210  53.6905190  37.2203304 112.3232993
  53.6481369  37.4464150 111.3941525  54.6067889  36.9866679 112.4718794
  62.8668561  30.8105807 109.9262951  62.7286459  31.0007403 108.9984140
  62.5104779  31.5725190 110.3831002  62.8937940  32.8782334 114.9374222
  63.3274447  32.7857624 115.7857276  63.6069521  32.8539835 114.2994238
  51.8070991  34.0966333 112.1194955  52.6011589  33.6016653 111.9177530
  51.0962683  33.5684196 111.7562661  56.6265835  36.4784429 116.4707323
  56.6802857  37.0475365 117.2385039  55.7580617  36.6486314 116.1061360
  48.1153754  28.2409415 108.1954708  47.1851342  28.1793870 108.4124670
  48.2111226  27.7185368 107.3991349  63.7553490  32.9206035 117.4707108
  63.9489380  33.8251846 117.7166383  63.6554108  32.4613454 118.3045693
  54.9790419  39.7704452 107.1418329  55.1542174  39.2992495 107.9563952
  54.2923207  40.3970218 107.3699590  55.9347482  34.0476958 113.1881630
  55.5997314  34.0077728 114.0839280  55.4351427  33.3821674 112.7152040
  58.8706673  31.3932992 103.4618690  58.2535844  30.6679820 103.3651743
  58.4023162  32.1542352 103.1185764  49.5451504  42.9193814 113.9158189
  49.7848102  43.5512338 114.5937208  48.7020700  42.5681854 114.2023548
  50.6605219  25.6118416 102.5839994  49.7834686  25.4907217 102.2202241
  51.1362972  24.8204495 102.3318883  54.0579366  38.7272937 116.3199693
  53.9849537  39.5327908 116.8318998  53.6156759  38.9264903 115.4947714
  53.8469145  37.9644707 109.8302515  53.0636667  38.5066387 109.9240739
  54.5461891  38.4818686 110.2296756  65.0095553  29.4779702 114.1155012
  64.9985429  30.3604417 113.7448945  64.1412932  29.1251253 113.9209549
  56.5178049  38.6259771 118.4757852  57.2306022  39.2607236 118.4033753
  56.0268078  38.7223637 117.6597854  58.2395576  32.5311023 110.0475143
  57.3051855  32.6512486 109.8779848  58.4172245  31.6283490 109.7835153
  61.6268128  28.3728343 110.5825178  62.0928580  29.2056334 110.5085480
  62.0775628  27.9073324 111.2870436  59.6944359  34.7172164 107.5811330
  59.9704203  34.6028759 108.4905204  58.8248857  34.3189649 107.5423503
  56.3298423  38.9658515 111.2244143  56.5120817  38.1480171 111.6871896
  57.1531409  39.1826207 110.7869033  56.6640588  37.8926700 108.4859192
  57.1928355  37.3819155 107.8729354  56.9268808  37.5769230 109.3504725
  50.0196336  38.9441817 111.2456968  49.3506711  39.4287944 110.7621008
  49.8809206  39.1911037 112.1600346  54.1601605  40.9785560 117.8439626
  54.7119913  41.1417182 118.6088711  54.5007798  41.5689998 117.1719651
  45.3883913  27.2060272 108.0252900  45.6837354  26.2970950 107.9719953
  44.4871949  27.1848011 107.7033902  57.2969992  38.9267536 114.8303308
  57.1721131  38.1257276 114.3214254  57.9549083  39.4213729 114.3417278
  59.3604900  36.7276556 116.4582858  58.4135236  36.6081907 116.3861185
  59.7087673  35.8399054 116.5409120  56.3651334  36.5229272 112.6587210
  56.2176296  35.5945979 112.8394780  57.1904827  36.5449363 112.1744286
  50.2313578  25.1747339 108.5167703  50.5709650  25.7033260 107.7946311
  50.6785698  25.5127745 109.2926269  59.9685455  37.3457831 113.7452083
  60.8932003  37.1400692 113.6076534  59.8000759  37.0974232 114.6541425
  52.2181725  23.6721961 106.7160995  52.9390088  24.0503213 106.2124712
  51.5947029  24.3910837 106.8195973  56.3612848  24.3767110 107.6519328
  56.5776462  25.2591748 107.3508156  55.8806915  23.9853323 106.9224970
  59.7580772  37.8643498 109.1014175  59.9317649  37.2989921 108.3488027
  60.2509663  38.6644393 108.9193665  65.6120163  30.6279921 110.7204474
  66.0551309  29.8787246 110.3223598  64.7346673  30.6190057 110.3378206
  60.7455944  37.1810263 106.2011073  61.4406849  37.8016955 106.4198388
  61.0879094  36.3305614 106.4763451  62.6447367  34.6309968 107.7298404
  63.1698691  34.9697241 107.0047724  62.5569720  33.6956983 107.5461538
  54.3288028  40.6981951 112.0893657  53.8893018  40.2058330 112.7826514
  55.0796145  40.1554919 111.8485732  46.8080367  36.8893492 112.0918285
  47.6338387  36.5897264 111.7116929  46.4574419  36.1201115 112.5408074
  51.7761900  36.2419960 114.1615959  51.1541910  35.5790666 113.8618186
  52.4466767  36.2681092 113.4789606  51.3375407  34.7923884 107.6374419
  51.4863528  35.4759348 106.9841092  52.1441851  34.7728974 108.1523875
  65.1553028  32.0985159 113.1126922  65.9899919  32.5374963 113.2764482
  65.2912156  31.6223813 112.2935168  49.0928040  30.8189061 108.6435488
  48.8474082  29.9151391 108.8415698  49.2623955  30.8206212 107.7014966
  48.3623688  26.5517419 106.1421649  47.6692933  26.6261774 105.4861685
  48.1175440  25.7877763 106.6643166  54.8370813  37.2872014 105.1086167
  54.2644780  37.9062201 104.6556638  55.4103606  37.8371376 105.6426088
  58.0568072  37.5709164 106.2394749  58.9898746  37.5054726 106.4427624
  57.9691285  38.4065431 105.7809281  60.6856089  36.8875035 103.1998696
  60.6069721  36.5534898 104.0934454  61.5065756  37.3796803 103.1990169
  63.3834280  29.7536774 116.4075015  63.3510600  28.8152775 116.5934699
  63.9934904  29.8320811 115.6740840  55.2217611  28.6232827 102.4502219
  56.1676716  28.4939035 102.5190637  54.8431856  27.8847489 102.9271647
  69.2010830  30.8152781 115.5481052  69.9314219  30.5538069 116.1088755
  68.5917776  30.0781503 115.5883120  67.2826127  28.9560643 116.1455503
  66.5559291  28.8216608 115.5371995  66.8673414  29.2637472 116.9512221
  53.4060528  26.5482803 102.3857104  52.4991984  26.2515916 102.4619818
  53.6836509  26.2512622 101.5191390  52.1759313  23.4069739 102.5269083
  53.0378477  23.7324637 102.7864901  52.3609657  22.6201235 102.0142149
  60.3291949  22.2798265 109.6704306  59.7490618  22.9383069 109.2882359
  60.0627882  21.4575610 109.2591724  59.1116827  24.4398355 108.7260655
  58.2242682  24.7248006 108.5080849  59.5270817  24.2792119 107.8787932
  62.4631364  24.4644876 112.4414994  63.2391754  24.9541329 112.7139611
  61.7379498  24.8902931 112.8986863  64.9003922  25.1772496 113.4988935
  65.4948413  24.9368232 112.7882243  64.9730506  24.4579626 114.1262471
  47.1201078  39.0206107 113.8132099  46.9855546  38.2606507 113.2470097
  46.7033140  39.7447006 113.3460888  58.2560041  34.2043030 102.8208675
  58.9595891  34.4093033 103.4366330  57.5322690  34.7719792 103.0857758
  59.0857851  29.9552891 108.9410945  59.0293053  30.4121443 108.1018577
  59.6386194  29.1943576 108.7633788  62.8962657  25.7442623 109.7661064
  62.6399591  25.3439259 110.5969272  62.2715525  26.4586417 109.6411204
  67.2074995  28.4838697 112.2732356  66.6474553  28.5531886 113.0463918
  66.6018498  28.3079681 111.5531852  50.2770204  39.9175424 114.0250542
  50.1602588  40.8620856 113.9229232  49.4562650  39.6148985 114.4136341
  60.1646738  34.6425559 104.8707135  60.9992342  34.2106758 104.6884610
  60.0031081  34.4707573 105.7984029  59.8192630  31.1457673 106.2363474
  59.7641434  30.9801944 105.2951918  59.1938686  31.8533706 106.3925664
  53.1288756  20.6465782 105.8148792  53.1167426  21.5907622 105.9717063
  54.0212178  20.4635927 105.5208254  51.3024718  40.5703686 117.2406470
  52.2051965  40.6027296 117.5572965  51.0762088  39.6404136 117.2552806
  53.0578320  39.3234672 113.9016549  52.1073951  39.3236534 113.7880921
  53.3610806  38.5767407 113.3852584  68.7931013  45.1595210 114.9662311
  69.4309423  45.0401958 114.2625652  68.6751856  46.1076054 115.0250264
  65.6020720  45.1122639 114.9023836  65.2639231  44.9963703 114.0144371
  66.4710488  44.7113804 114.8824842  61.4607535  46.9658115 110.8920727
  60.8972401  46.8748052 110.1237015  61.3459930  46.1458019 111.3723220
  66.0840503  46.2657490 120.8610042  66.0729143  45.8710289 119.9890545
  66.2461142  45.5323563 121.4543813  59.0071967  48.4609307 113.7304948
  59.7993259  48.1200131 113.3151247  59.2468617  48.5704282 114.6507101
  67.0407094  50.6329083 106.2035192  66.3895074  51.2183163 105.8169206
  67.8351457  51.1635278 106.2630230  60.9662721  47.7218220 106.6022326
  61.7393597  47.1747207 106.4635202  61.3188120  48.5862469 106.8136788
  62.8047764  49.0494602 119.8089226  62.5137630  49.9540233 119.6935892
  63.4404748  49.0911130 120.5233295  63.7303971  46.4271451 116.3990585
  64.3267543  46.2027473 115.6847548  63.7878942  45.6856196 117.0016033
  63.3028999  43.8810886 104.2340776  63.5554520  43.3592407 103.4724239
  62.3653558  43.7177031 104.3367460  68.3472282  42.8846664 112.0415520
  69.1335371  42.4666087 111.6905937  68.6110986  43.7892756 112.2097168
  68.5182359  48.3219515 106.7404176  67.8828192  48.3954141 107.4525081
  68.1879766  48.9113113 106.0623256  73.7480709  42.8221898 112.9448498
  74.4805881  42.2521114 113.1786328  72.9920065  42.4343498 113.3855004
  63.0225288  45.7838992 106.4365151  62.9061546  45.1083895 107.1046236
  63.1327548  45.2971366 105.6197304  65.3656829  45.2449139 110.1411841
  65.0015036  44.7179760 110.8524762  66.2223945  44.8547608 109.9678326
  71.2706129  36.5343472 117.4043107  70.9389454  37.4038883 117.1804322
  70.6751743  36.2179756 118.0837137  65.0062316  40.2739039 105.1373189
  65.1736718  41.1419275 105.5043660  64.8159485  40.4366320 104.2134478
  67.7637649  48.7356018 116.8039019  67.4638372  49.6381056 116.6954827
  67.4188708  48.4688201 117.6560172  61.2150130  45.1869814 112.8375724
  60.2900627  45.0546029 113.0453416  61.4634544  45.9664034 113.3345666
  71.1634793  41.2538558 114.4836457  70.2551670  41.1853966 114.1895218
  71.1122388  41.7310503 115.3118282  64.9851537  42.7296696 106.1219856
  64.8651162  43.1753747 106.9605336  64.2904125  43.0782014 105.5633394
  58.5758941  44.8303088 113.6719513  58.7051323  45.0837567 114.5858925
  57.8956393  45.4230796 113.3524168  62.7458429  55.5000338 109.7709987
  62.6682458  56.4508163 109.8498468  62.1420072  55.1546210 110.4284913
  65.2375658  42.6728203 122.4271354  64.4608993  43.2322124 122.4174219
  65.8766222  43.1584986 122.9486224  73.0296439  39.4554996 116.2614331
  72.3870819  39.7487529 115.6154125  72.5251368  39.3407917 117.0667527
  70.6836603  43.2018169 106.9500190  71.5954459  43.4345556 106.7747887
  70.1746250  43.7855214 106.3875268  63.4922031  45.4813657 121.9889321
  64.2336715  46.0198701 121.7124145  62.7859016  46.1079945 122.1460873
  68.9677370  47.6242797 120.5861482  69.3760726  47.1825208 119.8416115
  68.2454632  47.0495425 120.8395675  65.3208440  42.5615404 117.9595039
  66.1669636  42.9854818 118.1029688  65.2607078  41.9049028 118.6533603
  69.2906185  48.1843988 114.3413771  68.6615047  48.3489702 113.6389839
  68.9031847  48.5985597 115.1124735  73.1695417  49.1198426 111.6958135
  72.4846455  49.4997327 111.1455168  73.2539266  49.7293752 112.4290083
  68.4707886  40.2219772 119.6176213  68.2268818  40.9761833 119.0810489
  68.7467816  40.6005120 120.4523460  70.4246349  46.7658385 118.2953479
  70.6363244  47.4090145 117.6187860  70.3776097  45.9320701 117.8275409
  68.0272578  39.3776205 115.1990051  67.1657057  39.6757459 115.4906788
  68.0535012  39.5946604 114.2671083  64.8434147  47.9218396 111.6063856
  65.3072492  48.2006099 110.8168479  64.5790945  47.0201840 111.4236947
  61.7358228  47.4689877 114.5443620  62.3059585  47.8977146 113.9061104
  62.3266340  47.1872462 115.2427805  63.7803033  44.0441548 108.4153422
  64.4827076  44.4962592 108.8827348  63.4483661  43.4025367 109.0433315
  62.2283395  42.6353305 122.7904631  61.5982055  43.3169586 123.0240028
  62.1219482  42.5236387 121.8457769  57.5228367  42.3025101 113.7170555
  56.7327421  42.5582629 113.2410666  58.0139614  43.1173439 113.8222596
  71.5392177  49.6430340 116.4675836  72.3609620  49.2410527 116.1858518
  71.5354579  49.5398574 117.4191952  59.4743112  42.6669680 110.6754032
  58.6774276  42.7788374 111.1937528  59.2468705  43.0056332 109.8094922
  65.3048780  49.1914383 118.6236546  65.3693212  49.6534791 119.4594718
  64.5959704  48.5611748 118.7518856  55.8066070  42.5555591 116.1485546
  56.0574108  43.4402601 116.4143122  56.3425618  42.3760193 115.3760638
  79.6298170  45.9869089 112.8160807  78.8761878  45.4176487 112.6604812
  79.7645711  45.9531753 113.7631442  65.0196798  50.8582491 108.4915527
  64.8842472  51.7034027 108.9200375  65.5606610  51.0601769 107.7281461
  58.4726195  48.3757929 109.0643452  58.9850716  49.1701179 109.2149017
  59.1248908  47.6784219 108.9977053  60.2821080  51.4923685 111.1466205
  60.4587708  52.4141650 110.9587189  61.0777913  51.1782104 111.5760585
  64.4232098  38.3531950 122.7450139  65.1641812  38.9539103 122.6654601
  64.6550021  37.6109588 122.1868181  59.5673436  43.5388317 121.0228368
  59.4526951  42.6373574 121.3235467  58.7117954  43.7852014 120.6713185
  66.6465274  51.4806057 122.6215869  66.2029128  50.6942436 122.3036773
  67.3082488  51.6685208 121.9559760  61.4052395  53.0101859 117.1476547
  61.9559820  52.8818922 116.3753541  60.5663871  53.3096748 116.7971440
  68.7446512  51.7608857 120.6497270  68.7264987  52.5817738 120.1577539
  69.6666432  51.6362933 120.8747411  65.2019566  49.2752987 121.4920779
  65.7347903  48.5141275 121.2620087  64.6733647  48.9826639 122.2344933
  68.3689261  34.3813053 117.0214420  68.0253531  35.2714694 116.9453531
  68.7368224  34.1914710 116.1584005  56.4375112  46.7046583 109.8403022
  57.2750334  47.1143592 109.6236730  56.6153379  45.7646025 109.8103216
  68.3339544  44.3721664 105.5286855  67.8186167  45.1426269 105.7675243
  68.0616852  43.6986800 106.1519917  65.9186655  39.2171365 110.5872094
  65.0628251  38.8278215 110.4077732  66.3313607  39.2963325 109.7271879
  67.4485802  36.7517708 114.9863654  66.9450597  36.7147843 114.1731459
  67.7416408  37.6610451 115.0460310  63.6928687  36.8356438 113.9929835
  64.5581684  36.6399246 113.6335725  63.7606196  36.6066789 114.9199192
  73.3073818  47.1254019 107.4640029  72.5303261  46.7865178 107.0195191
  73.9865299  47.1306642 106.7894994  68.1225847  42.2448756 107.3546637
  67.8175983  42.5594905 108.2056780  69.0756289  42.3230176 107.3973970
  66.5672279  48.4038979 109.0039591  66.0393640  47.6691739 108.6912828
  66.0659782  49.1813656 108.7579559  71.5465125  46.5988000 114.1206637
  70.8888799  47.2887261 114.2086765  72.3505524  46.9884432 114.4640623
  61.2991007  39.0658646 111.3646202  61.8734758  38.8433827 110.6319395
  61.8861989  39.1347340 112.1174803  70.3570584  44.9532372 112.1710579
  70.8702465  45.5862364 112.6732288  71.0071808  44.3533568 111.8053939
  61.6260594  41.0963107 105.3842087  60.7897906  41.4337793 105.7051362
  61.4865363  40.9612086 104.4469224  63.6013674  35.9399894 110.0921271
  62.9478087  35.6248912 109.4677886  63.5594148  35.3175635 110.8181094
  64.7124879  46.2219190 102.0074564  63.8051941  45.9908443 102.2065713
  65.2095911  45.4256809 102.1948545  67.6192958  54.9316697 104.9271250
  66.9454657  55.2348394 105.5356208  68.0058780  55.7345777 104.5776707
  66.8351415  42.4281828 114.4168919  65.9173976  42.6496775 114.2590607
  67.2511558  42.5028139 113.5580626  67.6186462  43.8273244 109.5471599
  68.3658281  44.3394641 109.2378721  67.8878052  43.5057296 110.4075993
  65.8913113  46.3231784 106.5298554  64.9824332  46.0390817 106.6271023
  65.9208196  46.7430863 105.6701861  71.1232380  49.9338374 110.2989721
  70.6694707  49.0929284 110.3554912  70.4926347  50.5699772 110.6364501
  70.0665300  40.8630360 111.5290389  69.3288056  40.3507746 111.8600631
  70.3192073  40.4230742 110.7173666  69.5665319  51.7714871 111.2339539
  69.8588294  52.3319928 110.5151905  70.0763940  52.0643432 111.9892698
  70.1676927  33.6406612 112.1232158  70.4735804  32.7803975 111.8358073
  70.8929532  34.2324232 111.9231152  56.4601283  44.0437299 110.5113756
  56.2625683  43.4506659 109.7864822  55.9047947  43.7389509 111.2289695
  64.4398007  43.9360405 112.6308349  64.4946616  42.9834241 112.5550826
  63.6289209  44.0919844 113.1149647  65.5889200  47.8640528 103.8686632
  65.1508630  47.1476387 103.4092270  66.3299641  48.0916643 103.3071724
  62.3790366  42.5537465 110.3898728  61.5658232  42.8531635 110.7963920
  62.8749361  42.1593154 111.1073210  64.5298944  52.5495222 112.3232993
  64.4875123  52.7756068 111.3941525  65.4461643  52.3158596 112.4718794
  67.9764578  43.0179289 119.2213622  68.3313966  43.2450762 120.0808088
  68.6236709  43.3497666 118.5990877  73.7062315  46.1397725 109.9262951
  73.5680214  46.3299321 108.9984140  73.3498534  46.9017108 110.3831002
  61.8704441  40.1255820 116.0059963  62.5103821  39.9844579 115.3082926
  61.0381972  39.8390334 115.6298565  73.7331695  48.2074252 114.9374222
  74.1668201  48.1149541 115.7857276  74.4463275  48.1831753 114.2994238
  62.6464745  49.4258251 112.1194955  63.4405344  48.9308571 111.9177530
  61.9356438  48.8976114 111.7562661  67.4659590  51.8076346 116.4707323
  67.5196612  52.3767283 117.2385039  66.5974371  51.9778231 116.1061360
  58.9547509  43.5701332 108.1954708  58.0245097  43.5085788 108.4124670
  59.0504981  43.0477285 107.3991349  58.8733058  40.0956145 110.7832950
  59.1339875  41.0101479 110.6742110  59.6950230  39.6280588 110.9329562
  60.3457983  41.5093902 117.9531774  61.0181036  41.3011265 117.3044423
  59.5187770  41.3115988 117.5137006  74.5947244  48.2497953 117.4707108
  74.7883134  49.1543763 117.7166383  74.4947862  47.7905372 118.3045693
  66.2483555  38.1355843 119.9697435  65.6011470  38.8345793 119.8761911
  67.0184570  38.5691987 120.3373683  69.6562353  48.4004696 123.0447988
  69.5047859  48.1715247 122.1278072  69.6467032  49.3575297 123.0579333
  66.4247689  45.9736608 118.0294255  67.3539749  46.1247768 117.8563222
  66.0038719  46.0620629 117.1742901  65.2236021  49.9987273 115.7992792
  65.0847107  49.6306057 116.6718731  64.4350617  50.5134912 115.6276750
  65.8184173  55.0996369 107.1418329  65.9935929  54.6284412 107.9563952
  65.1316961  55.7262135 107.3699590  66.7741236  49.3768875 113.1881630
  66.4391069  49.3369645 114.0839280  66.2745182  48.7113591 112.7152040
  60.7485480  44.7836505 118.7134211  60.6105278  44.0516744 119.3145750
  61.6590404  44.6945406 118.4318399  69.7100428  46.7224910 103.4618690
  69.0929599  45.9971738 103.3651743  69.2416916  47.4834270 103.1185764
  63.3767781  44.4956465 118.2017891  64.0867399  43.8549657 118.1604509
  63.3337089  44.7469360 119.1244072  71.3654560  51.4323818 121.1224470
  71.3067106  50.7483038 120.4555053  71.7674078  52.1742808 120.6705096
  62.0896715  41.4821683 120.0213530  61.5534072  41.0312421 120.6735127
  61.5013423  41.6167591 119.2783995  60.3845258  58.2485732 113.9158189
  60.6241857  58.8804256 114.5937208  59.5414455  57.8973772 114.2023548
  61.4998974  40.9410334 102.5839994  60.6228440  40.8199135 102.2202241
  61.9756727  40.1496412 102.3318883  71.3671967  49.3963402 119.3538450
  70.4798746  49.0589324 119.4764849  71.9370518  48.6646433 119.5907215
  53.0201114  45.7287494 112.6781501  53.7072154  45.4149224 112.0902517
  52.8649243  46.6328858 112.4048753  57.8235836  40.6177690 117.1066525
  57.7394025  40.0103360 116.3716935  57.0018543  41.1086709 117.1076021
  64.8973120  54.0564854 116.3199693  64.8243292  54.8619826 116.8318998
  64.4550513  54.2556820 115.4947714  64.6862900  53.2936624 109.8302515
  63.9030422  53.8358305 109.9240739  65.3855645  53.8110604 110.2296756
  67.9959550  39.1031254 112.4736720  68.4928250  38.3501216 112.1537790
  67.2246532  39.1395571 111.9079929  75.8489307  44.8071619 114.1155012
  75.8379184  45.6896335 113.7448945  74.9806687  44.4543170 113.9209549
  67.3571804  53.9551688 118.4757852  68.0699776  54.5899153 118.4033753
  66.8661832  54.0515554 117.6597854  69.0789331  47.8602941 110.0475143
  68.1445609  47.9804404 109.8779848  69.2565999  46.9575408 109.7835153
  64.5794519  41.2448637 112.2008405  64.2092306  40.6919677 112.8889310
  65.0753611  40.6406770 111.6483405  72.4661882  43.7020260 110.5825178
  72.9322334  44.5348252 110.5085480  72.9169383  43.2365242 111.2870436
  62.4083717  51.7046132 119.2963423  63.1093177  52.3382615 119.4492817
  61.9378832  52.0460863 118.5359062  70.5338113  50.0464082 107.5811330
  70.8097957  49.9320676 108.4905204  69.6642612  49.6481567 107.5423503
  70.4378545  36.0700847 114.6216079  69.5241625  36.3005074 114.7898286
  70.8671646  36.1539291 115.4730111  70.2085003  44.2590739 117.1215973
  69.5556454  44.5066647 116.4668426  70.5865383  43.4454878 116.7878450
  67.1692177  54.2950433 111.2244143  67.3514572  53.4772088 111.6871896
  67.9925163  54.5118125 110.7869033  67.5034343  53.2218618 108.4859192
  68.0322109  52.7111072 107.8729354  67.7662562  52.9061148 109.3504725
  66.2572576  45.0010550 123.6082010  65.5813213  44.9004680 124.2784385
  67.0800210  44.8449764 124.0718007  58.0051435  51.2382487 116.2294525
  58.5904872  50.4926175 116.3622429  57.8076274  51.5486444 117.1131189
  60.8590091  54.2733734 111.2456968  60.1900466  54.7579862 110.7621008
  60.7202960  54.5202955 112.1600346  52.5969090  43.8088087 114.9498968
  52.6353190  43.2751678 115.7436086  52.0909383  43.2823293 114.3309946
  64.9995359  56.3077478 117.8439626  65.5513667  56.4709099 118.6088711
  65.3401553  56.8981916 117.1719651  59.9759852  38.6552628 118.4461511
  60.0401179  39.5167459 118.0338908  59.9126973  38.0426629 117.7133869
  69.8506234  51.1338735 123.6988280  70.3946137  51.7468694 123.2043235
  69.2693078  51.6918314 124.2155293  56.2277668  42.5352189 108.0252900
  56.5231109  41.6262868 107.9719953  55.3265703  42.5139929 107.7033902
  68.1363746  54.2559453 114.8303308  68.0114886  53.4549193 114.3214254
  68.7942838  54.7505647 114.3417278  59.7571915  40.6108186 114.0080448
  59.0358500  41.2244154 113.8687922  60.5465170  41.1465951 113.9297094
  70.1998655  52.0568473 116.4582858  69.2528990  51.9373825 116.3861185
  70.5481428  51.1690972 116.5409120  62.5598228  37.9462612 120.2821100
  63.0832630  38.1924909 121.0447409  62.3410561  38.7782647 119.8624237
  57.9565509  40.2166287 108.1492225  57.6278215  39.3363666 107.9667331
  58.3104880  40.1613956 109.0368614  67.2045088  51.8521190 112.6587210
  67.0570051  50.9237897 112.8394780  68.0298582  51.8741280 112.1744286
  61.0707332  40.5039257 108.5167703  61.4103405  41.0325178 107.7946311
  61.5179453  40.8419663 109.2926269  70.8079210  52.6749748 113.7452083
  71.7325757  52.4692610 113.6076534  70.6394513  52.4266150 114.6541425
  63.7650773  38.8876307 117.9670771  63.4247594  38.0884121 118.3691451
  63.0589780  39.1878018 117.3947604  64.4167245  35.9725620 116.4198094
  65.2393314  35.4986098 116.2976984  64.6605309  36.7516104 116.9196780
  63.0575480  39.0013878 106.7160995  63.7783842  39.3795131 106.2124712
  62.4340784  39.7202755 106.8195973  67.2006602  39.7059027 107.6519328
  67.4170217  40.5883665 107.3508156  66.7200670  39.3145241 106.9224970
  61.9405824  42.6644741 114.2290072  61.7950405  42.9785044 115.1214354
  61.4631027  43.2829641 113.6760971  63.8002207  39.6547289 114.2770962
  63.7863775  38.7588382 113.9403260  64.5174635  39.6617952 114.9109248
  65.6528337  40.0884629 116.3224089  65.3946115  41.0101699 116.3208420
  65.1213378  39.6915063 117.0124553  70.5974526  53.1935416 109.1014175
  70.7711404  52.6281838 108.3488027  71.0903417  53.9936311 108.9193665
  56.4151486  45.2050085 117.1677733  55.8704954  45.9809893 117.2998008
  57.2930836  45.5520889 117.0096855  63.2039103  38.5361669 109.5458532
  63.3255014  37.6078315 109.7449419  62.9141145  38.5500355 108.6336847
  66.0730293  36.2216579 112.6825252  66.0951990  36.2855912 111.7277231
  66.4898352  35.3821088 112.8765758  76.4513917  45.9571839 110.7204474
  76.8945063  45.2079164 110.3223598  75.5740428  45.9481975 110.3378206
  71.5849699  52.5102180 106.2011073  72.2800603  53.1308873 106.4198388
  71.9272849  51.6597531 106.4763451  57.2017508  44.3319981 120.0607890
  56.4599244  44.4802617 120.6472521  56.8810252  44.5928247 119.1974640
  73.4841122  49.9601886 107.7298404  74.0092446  50.2989159 107.0047724
  73.3963474  49.0248901 107.5461538  65.1461171  53.8735959 119.8588280
  65.4548297  53.6285106 120.7310980  65.9436653  54.0782598 119.3707151
  65.1681783  56.0273869 112.0893657  64.7286773  55.5350248 112.7826514
  65.9189900  55.4846837 111.8485732  57.6474122  52.2185410 112.0918285
  58.4732141  51.9189182 111.7116929  57.2968174  51.4493032 112.5408074
  62.6155655  51.5711878 114.1615959  61.9935664  50.9082583 113.8618186
  63.2860522  51.5973010 113.4789606  55.8482727  50.1371736 113.0507219
  55.0114635  49.7093911 112.8691220  55.8206372  50.3304180 113.9878010
  73.1735028  50.5934789 123.0349602  72.3830572  50.5758928 122.4954101
  72.9368382  51.1323083 123.7898638  73.2932903  47.4427256 120.3482330
  73.3430908  47.2777263 121.2897853  73.1846826  46.5754515 119.9580211
  62.1769162  50.1215802 107.6374419  62.3257282  50.8051266 106.9841092
  62.9835605  50.1020892 108.1523875  70.5836665  43.4258184 121.6641637
  71.4846528  43.2864649 121.3725635  70.6584640  43.5912639 122.6039814
  64.9179471  40.8025039 120.5094823  64.0482780  41.0958605 120.2377412
  65.1538951  41.3865484 121.2302087  74.7951100  49.8624197 120.5924352
  74.5035908  50.2254178 121.4287813  74.1823231  49.1491206 120.4137684
  75.9946782  47.4277077 113.1126922  76.8293673  47.8666881 113.2764482
  76.1305911  46.9515730 112.2935168  73.0438288  44.9856812 119.0604410
  73.5192410  45.1784458 118.2523261  72.1203853  45.0415998 118.8147793
  59.9321795  46.1480979 108.6435488  59.6867837  45.2443309 108.8415698
  60.1017709  46.1498130 107.7014966  67.6218504  37.0204656 118.0260244
  68.1400448  37.7565682 117.7006732  67.2673637  37.3268649 118.8607003
  59.2017442  41.8809337 106.1421649  58.5086687  41.9553692 105.4861685
  58.9569194  41.1169680 106.6643166  67.8731099  33.4404938 113.5461140
  68.1532852  32.7728127 114.1721567  68.6581706  33.6334034 113.0335804
  65.6764567  52.6163932 105.1086167  65.1038534  53.2354119 104.6556638
  66.2497361  53.1663294 105.6426088  71.7439957  41.8622572 117.2932715
  72.6957380  41.9620670 117.3144939  71.5743407  41.0700841 117.8030800
  69.7654336  38.9478155 117.4792116  69.1704269  39.2283168 116.7838605
  69.4804033  39.4372056 118.2508857  68.8961827  52.9001082 106.2394749
  69.8292500  52.8346644 106.4427624  68.8085040  53.7357349 105.7809281
  71.5249844  52.2166952 103.1998696  71.4463475  51.8826816 104.0934454
  72.3459510  52.7088720 103.1990169  74.2228035  45.0828692 116.4075015
  74.1904355  44.1444692 116.5934699  74.8328658  45.1612728 115.6740840
  66.0611366  43.9524745 102.4502219  67.0070470  43.8230953 102.5190637
  65.6825611  43.2139407 102.9271647  74.3722523  41.8739735 116.4533298
  73.8561572  41.0898192 116.2663227  75.2562472  41.5458452 116.6179818
  72.0333250  35.6180751 112.4129111  71.8358071  35.3095839 113.2972443
  72.6432956  36.3442390 112.5427041  80.0404585  46.1444699 115.5481052
  80.7707973  45.8829987 116.1088755  79.4311530  45.4073421 115.5883120
  78.1219882  44.2852561 116.1455503  77.3953045  44.1508526 115.5371995
  77.7067169  44.5929390 116.9512221  65.9450058  48.0042491 123.9102876
  66.8653068  48.1821090 124.1042923  65.9099641  47.0598536 123.7582575
  64.2454283  41.8774721 102.3857104  63.3385738  41.5807834 102.4619818
  64.5230264  41.5804539 101.5191390  55.1632223  43.1981085 112.8356151
  54.8435008  42.3446393 112.5430525  54.6165651  43.4129663 113.5914118
  58.9412131  45.9143526 116.5525657  59.1598141  46.8460633 116.5713691
  59.3537905  45.5551500 117.3380461  65.8616349  36.4211611 108.5401346
  65.0517077  36.0758696 108.9156592  66.5500765  36.1119155 109.1288957
  67.7906897  35.4989658 110.1625642  68.3437935  35.9185111 110.8215665
  68.0276983  34.5725406 110.2048598  63.0153067  38.7361656 102.5269083
  63.8772231  39.0616555 102.7864901  63.2003412  37.9493152 102.0142149
  55.0320483  46.8183996 114.8049272  54.3383955  46.4037949 114.2919227
  55.7793474  46.8604533 114.2082691  71.1685704  37.6090183 109.6704306
  70.5884373  38.2674987 109.2882359  70.9021637  36.7867527 109.2591724
  69.6189270  37.0095240 111.8725627  70.1189049  37.1211775 111.0639946
  70.2624878  36.7056293 112.5126435  63.6771266  44.9173870 124.7593468
  63.1938348  45.7174230 124.9657357  63.7632205  44.9281815 123.8060912
  56.9457226  46.7502250 112.6815287  56.9227914  46.8489937 111.7297170
  57.2557862  47.5967401 113.0032453  59.6044604  48.8078405 116.7961902
  60.5587857  48.7762347 116.7291833  59.4057127  48.3469029 117.6112127
  60.1943986  47.3779521 119.3632699  61.0136875  47.8723600 119.3867536
  60.4680793  46.4611489 119.3350267  69.9510582  39.7690273 108.7260655
  69.0636437  40.0539924 108.5080849  70.3664571  39.6084037 107.8787932
  73.3025118  39.7936794 112.4414994  74.0785508  40.2833247 112.7139611
  72.5773252  40.2194848 112.8986863  75.7397677  40.5064413 113.4988935
  76.3342167  40.2660149 112.7882243  75.8124260  39.7871544 114.1262471
  57.9594832  54.3498024 113.8132099  57.8249300  53.5898425 113.2470097
  57.5426895  55.0738924 113.3460888  69.0953795  49.5334948 102.8208675
  69.7989646  49.7384950 103.4366330  68.3716444  50.1011710 103.0857758
  69.9251606  45.2844809 108.9410945  69.8686807  45.7413361 108.1018577
  70.4779948  44.5235494 108.7633788  73.7356412  41.0734541 109.7661064
  73.4793346  40.6731177 110.5969272  73.1109280  41.7878335 109.6411204
  78.0468749  43.8130614 112.2732356  77.4868307  43.8823804 113.0463918
  77.4412253  43.6371599 111.5531852  61.1163958  55.2467341 114.0250542
  60.9996342  56.1912774 113.9229232  60.2956405  54.9440903 114.4136341
  71.0040493  49.9717477 104.8707135  71.8386097  49.5398676 104.6884610
  70.8424836  49.7999491 105.7984029  70.6586385  46.4749590 106.2363474
  70.6035189  46.3093862 105.2951918  70.0332440  47.1825623 106.3925664
  55.4478900  41.7117655 120.0624896  56.0937764  41.2016609 120.5512121
  55.2396051  42.4486336 120.6368322  67.9732292  48.7798502 125.5617037
  68.8423452  48.9539154 125.2003672  67.4939044  49.5992919 125.4392766
  63.9682510  35.9757699 105.8148792  63.9561180  36.9199539 105.9717063
  64.8605932  35.7927845 105.5208254  62.1418472  55.8995603 117.2406470
  63.0445719  55.9319213 117.5572965  61.9155842  54.9696054 117.2552806
  63.8972074  54.6526590 113.9016549  62.9467705  54.6528451 113.7880921
  64.2004561  53.9059324 113.3852584  67.7834630  32.5700476 110.0694729
  67.0167026  32.0158963 110.2151412  68.1945335  32.6422345 110.9308881
  79.6324768  60.4887128 114.9662311  80.2703178  60.3693875 114.2625652
  79.5145611  61.4367972 115.0250264  76.4414474  60.4414556 114.9023836
  76.1032986  60.3255621 114.0144371  77.3104242  60.0405721 114.8824842
  72.3001290  62.2950033 110.8920727  71.7366155  62.2039970 110.1237015
  72.1853685  61.4749937 111.3723220  76.9234257  61.5949408 120.8610042
  76.9122898  61.2002206 119.9890545  77.0854897  60.8615481 121.4543813
  69.8465722  63.7901224 113.7304948  70.6387014  63.4492049 113.3151247
  70.0862372  63.8996199 114.6507101  77.8800849  65.9621000 106.2035192
  77.2288828  66.5475081 105.8169206  78.6745211  66.4927195 106.2630230
  71.8056476  63.0510138 106.6022326  72.5787352  62.5039125 106.4635202
  72.1581875  63.9154387 106.8136788  73.6441518  64.3786520 119.8089226
  73.3531384  65.2832151 119.6935892  74.2798503  64.4203047 120.5233295
  74.5697725  61.7563368 116.3990585  75.1661297  61.5319391 115.6847548
  74.6272697  61.0148114 117.0016033  74.1422754  59.2102804 104.2340776
  74.3948274  58.6884325 103.4724239  73.2047313  59.0468949 104.3367460
  79.1866036  58.2138582 112.0415520  79.9729126  57.7958005 111.6905937
  79.4504741  59.1184674 112.2097168  79.3576114  63.6511432 106.7404176
  78.7221947  63.7246059 107.4525081  79.0273520  64.2405031 106.0623256
  84.5874464  58.1513815 112.9448498  85.3199635  57.5813032 113.1786328
  83.8313819  57.7635416 113.3855004  73.8619042  61.1130910 106.4365151
  73.7455300  60.4375813 107.1046236  73.9721302  60.6263284 105.6197304
  76.2050583  60.5741057 110.1411841  75.8408790  60.0471678 110.8524762
  77.0617699  60.1839526 109.9678326  82.1099884  51.8635389 117.4043107
  81.7783209  52.7330800 117.1804322  81.5145497  51.5471673 118.0837137
  75.8456070  55.6030956 105.1373189  76.0130473  56.4711193 105.5043660
  75.6553239  55.7658238 104.2134478  78.6031403  64.0647935 116.8039019
  78.3032126  64.9672974 116.6954827  78.2582463  63.7980118 117.6560172
  72.0543885  60.5161732 112.8375724  71.1294381  60.3837946 113.0453416
  72.3028298  61.2955951 113.3345666  82.0028547  56.5830475 114.4836457
  81.0945425  56.5145884 114.1895218  81.9516143  57.0602420 115.3118282
  75.8245291  58.0588614 106.1219856  75.7044916  58.5045665 106.9605336
  75.1297879  58.4073932 105.5633394  69.4152696  60.1595006 113.6719513
  69.5445077  60.4129485 114.5858925  68.7350147  60.7522714 113.3524168
  73.5852183  70.8292256 109.7709987  73.5076213  71.7800081 109.8498468
  72.9813827  70.4838128 110.4284913  76.0769413  58.0020121 122.4271354
  75.3002747  58.5614041 122.4174219  76.7159976  58.4876904 122.9486224
  83.8690194  54.7846914 116.2614331  83.2264574  55.0779447 115.6154125
  83.3645122  54.6699834 117.0667527  81.5230357  58.5310087 106.9500190
  82.4348213  58.7637474 106.7747887  81.0140004  59.1147131 106.3875268
  74.3315785  60.8105574 121.9889321  75.0730470  61.3490618 121.7124145
  73.6252771  61.4371863 122.1460873  79.8071125  62.9534715 120.5861482
  80.2154481  62.5117125 119.8416115  79.0848386  62.3787342 120.8395675
  76.1602195  57.8907322 117.9595039  77.0063390  58.3146735 118.1029688
  76.1000833  57.2340946 118.6533603  80.1299940  63.5135906 114.3413771
  79.5008802  63.6781620 113.6389839  79.7425602  63.9277515 115.1124735
  84.0089171  64.4490343 111.6958135  83.3240210  64.8289245 111.1455168
  84.0933021  65.0585670 112.4290083  79.3101640  55.5511690 119.6176213
  79.0662572  56.3053751 119.0810489  79.5861571  55.9297038 120.4523460
  81.2640103  62.0950302 118.2953479  81.4756998  62.7382062 117.6187860
  81.2169851  61.2612619 117.8275409  78.8666332  54.7068123 115.1990051
  78.0050811  55.0049377 115.4906788  78.8928767  54.9238522 114.2671083
  75.6827901  63.2510314 111.6063856  76.1466247  63.5298017 110.8168479
  75.4184700  62.3493758 111.4236947  72.5751982  62.7981795 114.5443620
  73.1453340  63.2269064 113.9061104  73.1660094  62.5164380 115.2427805
  74.6196787  59.3733466 108.4153422  75.3220831  59.8254510 108.8827348
  74.2877416  58.7317285 109.0433315  73.0677149  57.9645223 122.7904631
  72.4375810  58.6461503 123.0240028  72.9613237  57.8528304 121.8457769
  68.3622121  57.6317019 113.7170555  67.5721175  57.8874547 113.2410666
  68.8533369  58.4465356 113.8222596  82.3785931  64.9722258 116.4675836
  83.2003375  64.5702445 116.1858518  82.3748334  64.8690492 117.4191952
  70.3136867  57.9961598 110.6754032  69.5168030  58.1080292 111.1937528
  70.0862459  58.3348250 109.8094922  76.1442534  64.5206301 118.6236546
  76.2086967  64.9826708 119.4594718  75.4353458  63.8903666 118.7518856
  66.6459824  57.8847509 116.1485546  66.8967863  58.7694519 116.4143122
  67.1819373  57.7052111 115.3760638  90.4691924  61.3161006 112.8160807
  89.7155632  60.7468404 112.6604812  90.6039465  61.2823671 113.7631442
  75.8590552  66.1874409 108.4915527  75.7236227  67.0325944 108.9200375
  76.4000365  66.3893686 107.7281461  72.3457892  52.2665988 125.1529882
  71.9524837  51.7132187 125.8277526  73.1624032  52.5776567 125.5436400
  69.3119949  63.7049847 109.0643452  69.8244470  64.4993097 109.2149017
  69.9642662  63.0076137 108.9977053  71.1214834  66.8215603 111.1466205
  71.2981463  67.7433568 110.9587189  71.9171668  66.5074022 111.5760585
  75.2625853  53.6823868 122.7450139  76.0035566  54.2831021 122.6654601
  75.4943776  52.9401505 122.1868181  70.4067191  58.8680235 121.0228368
  70.2920706  57.9665492 121.3235467  69.5511708  59.1143932 120.6713185
  77.4859028  66.8097975 122.6215869  77.0422883  66.0234354 122.3036773
  78.1476242  66.9977126 121.9559760  72.2446150  68.3393777 117.1476547
  72.7953575  68.2110840 116.3753541  71.4057626  68.6388666 116.7971440
  79.5840267  67.0900775 120.6497270  79.5658742  67.9109656 120.1577539
  80.5060187  66.9654850 120.8747411  76.0413321  64.6044905 121.4920779
  76.5741657  63.8433193 121.2620087  75.5127402  64.3118556 122.2344933
  79.2083016  49.7104970 117.0214420  78.8647285  50.6006612 116.9453531
  79.5761978  49.5206628 116.1584005  67.2768866  62.0338501 109.8403022
  68.1144088  62.4435509 109.6236730  67.4547134  61.0937943 109.8103216
  79.1733298  59.7013582 105.5286855  78.6579922  60.4718186 105.7675243
  78.9010607  59.0278718 106.1519917  76.7580409  54.5463282 110.5872094
  75.9022006  54.1570133 110.4077732  77.1707361  54.6255243 109.7271879
  78.2879556  52.0809626 114.9863654  77.7844352  52.0439761 114.1731459
  78.5810163  52.9902368 115.0460310  74.5322442  52.1648355 113.9929835
  75.3975439  51.9691164 113.6335725  74.5999951  51.9358707 114.9199192
  84.1467573  62.4545936 107.4640029  83.3697015  62.1157096 107.0195191
  84.8259053  62.4598559 106.7894994  78.9619602  57.5740674 107.3546637
  78.6569737  57.8886823 108.2056780  79.9150044  57.6522094 107.3973970
  77.4066033  63.7330897 109.0039591  76.8787395  62.9983657 108.6912828
  76.9053536  64.5105573 108.7579559  82.3858879  61.9279917 114.1206637
  81.7282554  62.6179179 114.2086765  83.1899279  62.3176349 114.4640623
  72.1384761  54.3950563 111.3646202  72.7128513  54.1725745 110.6319395
  72.7255743  54.4639258 112.1174803  81.1964338  60.2824290 112.1710579
  81.7096220  60.9154282 112.6732288  81.8465562  59.6825486 111.8053939
  72.4654348  56.4255024 105.3842087  71.6291660  56.7629711 105.7051362
  72.3259118  56.2904004 104.4469224  74.4407429  51.2691812 110.0921271
  73.7871841  50.9540829 109.4677886  74.3987903  50.6467553 110.8181094
  75.5518634  61.5511107 102.0074564  74.6445695  61.3200361 102.2065713
  76.0489666  60.7548727 102.1948545  78.4586712  70.2608614 104.9271250
  77.7848411  70.5640311 105.5356208  78.8452534  71.0637695 104.5776707
  77.6745169  57.7573746 114.4168919  76.7567730  57.9788693 114.2590607
  78.0905313  57.8320056 113.5580626  78.4580217  59.1565161 109.5471599
  79.2052036  59.6686559 109.2378721  78.7271806  58.8349214 110.4075993
  76.7306867  61.6523702 106.5298554  75.8218086  61.3682735 106.6271023
  76.7601951  62.0722781 105.6701861  81.9626134  65.2630292 110.2989721
  81.5088462  64.4221202 110.3554912  81.3320101  65.8991690 110.6364501
  80.9059054  56.1922278 111.5290389  80.1681811  55.6799664 111.8600631
  81.1585828  55.7522659 110.7173666  80.4059074  67.1006788 111.2339539
  80.6982048  67.6611845 110.5151905  80.9157694  67.3935349 111.9892698
  81.0070681  48.9698530 112.1232158  81.3129558  48.1095893 111.8358073
  81.7323286  49.5616150 111.9231152  67.2995037  59.3729216 110.5113756
  67.1019437  58.7798577 109.7864822  66.7441701  59.0681426 111.2289695
  75.2791761  59.2652323 112.6308349  75.3340371  58.3126159 112.5550826
  74.4682963  59.4211762 113.1149647  76.4282955  63.1932446 103.8686632
  75.9902385  62.4768305 103.4092270  77.1693396  63.4208561 103.3071724
  73.2184121  57.8829382 110.3898728  72.4051987  58.1823553 110.7963920
  73.7143115  57.4885071 111.1073210  75.3692699  67.8787139 112.3232993
  75.3268878  68.1047986 111.3941525  76.2855398  67.6450514 112.4718794
  78.8158333  58.3471207 119.2213622  79.1707720  58.5742680 120.0808088
  79.4630464  58.6789584 118.5990877  84.5456070  61.4689643 109.9262951
  84.4073968  61.6591239 108.9984140  84.1892288  62.2309026 110.3831002
  72.7098196  55.4547738 116.0059963  73.3497575  55.3136497 115.3082926
  71.8775726  55.1682251 115.6298565  84.5725449  63.5366170 114.9374222
  85.0061956  63.4441459 115.7857276  85.2857030  63.5123670 114.2994238
  73.4858500  64.7550168 112.1194955  74.2799098  64.2600489 111.9177530
  72.7750192  64.2268032 111.7562661  78.3053344  67.1368264 116.4707323
  78.3590366  67.7059200 117.2385039  77.4368125  67.3070149 116.1061360
  69.7941263  58.8993250 108.1954708  68.8638851  58.8377706 108.4124670
  69.8898735  58.3769203 107.3991349  69.7126812  55.4248063 110.7832950
  69.9733629  56.3393396 110.6742110  70.5343984  54.9572506 110.9329562
  71.1851737  56.8385820 117.9531774  71.8574791  56.6303182 117.3044423
  70.3581524  56.6407906 117.5137006  85.4340999  63.5789870 117.4707108
  85.6276889  64.4835681 117.7166383  85.3341617  63.1197290 118.3045693
  77.0877310  53.4647761 119.9697435  76.4405225  54.1637711 119.8761911
  77.8578325  53.8983905 120.3373683  80.4956107  63.7296613 123.0447988
  80.3441614  63.5007165 122.1278072  80.4860787  64.6867215 123.0579333
  77.2641444  61.3028526 118.0294255  78.1933504  61.4539686 117.8563222
  76.8432474  61.3912547 117.1742901  76.0629776  65.3279190 115.7992792
  75.9240861  64.9597975 116.6718731  75.2744372  65.8426830 115.6276750
  76.6577928  70.4288287 107.1418329  76.8329683  69.9576330 107.9563952
  75.9710716  71.0554053 107.3699590  77.6134991  64.7060793 113.1881630
  77.2784823  64.6661563 114.0839280  77.1138936  64.0405509 112.7152040
  71.5879235  60.1128423 118.7134211  71.4499033  59.3808662 119.3145750
  72.4984158  60.0237323 118.4318399  80.5494182  62.0516827 103.4618690
  79.9323353  61.3263656 103.3651743  80.0810671  62.8126188 103.1185764
  74.2161535  59.8248382 118.2017891  74.9261154  59.1841575 118.1604509
  74.1730844  60.0761277 119.1244072  82.2048314  66.7615736 121.1224470
  82.1460860  66.0774956 120.4555053  82.6067832  67.5034726 120.6705096
  72.9290469  56.8113600 120.0213530  72.3927826  56.3604339 120.6735127
  72.3407178  56.9459509 119.2783995  71.2239013  73.5777650 113.9158189
  71.4635611  74.2096174 114.5937208  70.3808209  73.2265690 114.2023548
  72.3392728  56.2702252 102.5839994  71.4622195  56.1491053 102.2202241
  72.8150481  55.4788330 102.3318883  82.2065721  64.7255320 119.3538450
  81.3192500  64.3881242 119.4764849  82.7764272  63.9938351 119.5907215
  63.8594868  61.0579411 112.6781501  64.5465908  60.7441142 112.0902517
  63.7042997  61.9620776 112.4048753  68.6629591  55.9469608 117.1066525
  68.5787779  55.3395278 116.3716935  67.8412297  56.4378626 117.1076021
  75.7366875  69.3856772 116.3199693  75.6637046  70.1911744 116.8318998
  75.2944268  69.5848738 115.4947714  75.5256654  68.6228542 109.8302515
  74.7424176  69.1650222 109.9240739  76.2249400  69.1402522 110.2296756
  78.8353304  54.4323172 112.4736720  79.3322004  53.6793134 112.1537790
  78.0640286  54.4687488 111.9079929  86.6883062  60.1363537 114.1155012
  86.6772938  61.0188253 113.7448945  85.8200441  59.7835088 113.9209549
  78.1965558  69.2843606 118.4757852  78.9093530  69.9191071 118.4033753
  77.7055587  69.3807472 117.6597854  79.9183085  63.1894859 110.0475143
  78.9839364  63.3096321 109.8779848  80.0959754  62.2867326 109.7835153
  75.4188273  56.5740555 112.2008405  75.0486061  56.0211595 112.8889310
  75.9147366  55.9698688 111.6483405  83.3055637  59.0312178 110.5825178
  83.7716089  59.8640170 110.5085480  83.7563137  58.5657160 111.2870436
  73.2477472  67.0338050 119.2963423  73.9486931  67.6674533 119.4492817
  72.7772587  67.3752781 118.5359062  81.3731868  65.3755999 107.5811330
  81.6491712  65.2612594 108.4905204  80.5036366  64.9773484 107.5423503
  81.2772299  51.3992765 114.6216079  80.3635379  51.6296992 114.7898286
  81.7065401  51.4831209 115.4730111  81.0478758  59.5882657 117.1215973
  80.3950208  59.8358564 116.4668426  81.4259138  58.7746795 116.7878450
  78.0085932  69.6242350 111.2244143  78.1908326  68.8064006 111.6871896
  78.8318918  69.8410042 110.7869033  78.3428097  68.5510535 108.4859192
  78.8715864  68.0402990 107.8729354  78.6056317  68.2353066 109.3504725
  77.0966331  60.3302468 123.6082010  76.4206968  60.2296597 124.2784385
  77.9193965  60.1741682 124.0718007  68.8445190  66.5674405 116.2294525
  69.4298627  65.8218093 116.3622429  68.6470028  66.8778361 117.1131189
  71.6983845  69.6025652 111.2456968  71.0294220  70.0871780 110.7621008
  71.5596715  69.8494872 112.1600346  63.4362845  59.1380005 114.9498968
  63.4746944  58.6043596 115.7436086  62.9303137  58.6115210 114.3309946
  75.8389114  71.6369396 117.8439626  76.3907422  71.8001017 118.6088711
  76.1795307  72.2273833 117.1719651  70.8153607  53.9844545 118.4461511
  70.8794933  54.8459376 118.0338908  70.7520727  53.3718547 117.7133869
  70.2905879  56.0567678 122.0934545  70.9177918  55.6744755 122.7072069
  69.4333798  55.8381880 122.4590237  67.0671422  57.8644107 108.0252900
  67.3624863  56.9554785 107.9719953  66.1659458  57.8431846 107.7033902
  78.9757501  69.5851371 114.8303308  78.8508640  68.7841111 114.3214254
  79.6336592  70.0797564 114.3417278  70.5965669  55.9400104 114.0080448
  69.8752255  56.5536071 113.8687922  71.3858925  56.4757868 113.9297094
  81.0392409  67.3860391 116.4582858  80.0922745  67.2665742 116.3861185
  81.3875182  66.4982889 116.5409120  73.3991983  53.2754530 120.2821100
  73.9226385  53.5216827 121.0447409  73.1804316  54.1074565 119.8624237
  68.7959264  55.5458205 108.1492225  68.4671970  54.6655584 107.9667331
  69.1498634  55.4905873 109.0368614  78.0438843  67.1813107 112.6587210
  77.8963805  66.2529815 112.8394780  78.8692336  67.2033198 112.1744286
  71.9101087  55.8331174 108.5167703  72.2497159  56.3617096 107.7946311
  72.3573207  56.1711581 109.2926269  81.6472964  68.0041666 113.7452083
  82.5719512  67.7984527 113.6076534  81.4788268  67.7558067 114.6541425
  74.6044528  54.2168225 117.9670771  74.2641348  53.4176038 118.3691451
  73.8983534  54.5169936 117.3947604  75.2561000  51.3017538 116.4198094
  76.0787069  50.8278016 116.2976984  75.4999063  52.0808021 116.9196780
  73.8969234  54.3305796 106.7160995  74.6177597  54.7087049 106.2124712
  73.2734538  55.0494673 106.8195973  78.0400357  55.0350945 107.6519328
  78.2563971  55.9175583 107.3508156  77.5594424  54.6437158 106.9224970
  72.7799578  57.9936658 114.2290072  72.6344159  58.3076961 115.1214354
  72.3024782  58.6121559 113.6760971  74.6395961  54.9839206 114.2770962
  74.6257530  54.0880300 113.9403260  75.3568389  54.9909870 114.9109248
  76.4922092  55.4176546 116.3224089  76.2339870  56.3393617 116.3208420
  75.9607132  55.0206981 117.0124553  81.4368281  68.5227334 109.1014175
  81.6105158  67.9573756 108.3488027  81.9297172  69.3228228 108.9193665
  67.2545240  60.5342003 117.1677733  66.7098709  61.3101811 117.2998008
  68.1324590  60.8812807 117.0096855  74.0432857  53.8653586 109.5458532
  74.1648768  52.9370233 109.7449419  73.7534900  53.8792272 108.6336847
  76.9124048  51.5508497 112.6825252  76.9345744  51.6147830 111.7277231
  77.3292107  50.7113006 112.8765758  87.2907672  61.2863756 110.7204474
  87.7338818  60.5371082 110.3223598  86.4134182  61.2773893 110.3378206
  82.4243453  67.8394098 106.2011073  83.1194358  68.4600791 106.4198388
  82.7666603  66.9889449 106.4763451  68.0411262  59.6611899 120.0607890
  67.2992998  59.8094534 120.6472521  67.7204007  59.9220165 119.1974640
  84.3234876  65.2893803 107.7298404  84.8486200  65.6281076 107.0047724
  84.2357229  64.3540819 107.5461538  75.9854925  69.2027877 119.8588280
  76.2942051  68.9577024 120.7310980  76.7830407  69.4074516 119.3707151
  76.0075537  71.3565787 112.0893657  75.5680527  70.8642165 112.7826514
  76.7583654  70.8138754 111.8485732  68.4867876  67.5477328 112.0918285
  69.3125896  67.2481099 111.7116929  68.1361928  66.7784950 112.5408074
  73.4549409  66.9003796 114.1615959  72.8329418  66.2374501 113.8618186
  74.1254276  66.9264928 113.4789606  66.6876481  65.4663654 113.0507219
  65.8508389  65.0385828 112.8691220  66.6600127  65.6596097 113.9878010
  73.5273937  55.3785584 123.7548465  73.5762092  56.2547707 123.3726234
  74.0696451  54.8362977 123.1820108  84.1326657  62.7719173 120.3482330
  84.1824662  62.6069181 121.2897853  84.0240581  61.9046433 119.9580211
  73.0162916  65.4507719 107.6374419  73.1651036  66.1343184 106.9841092
  73.8229360  65.4312809 108.1523875  81.4230420  58.7550102 121.6641637
  82.3240283  58.6156566 121.3725635  81.4978394  58.9204556 122.6039814
  75.7573225  56.1316956 120.5094823  74.8876535  56.4250522 120.2377412
  75.9932705  56.7157401 121.2302087  86.8340537  62.7568995 113.1126922
  87.6687428  63.1958799 113.2764482  86.9699665  62.2807648 112.2935168
  83.8832042  60.3148730 119.0604410  84.3586164  60.5076376 118.2523261
  82.9597608  60.3707915 118.8147793  70.7715549  61.4772897 108.6435488
  70.5261591  60.5735227 108.8415698  70.9411464  61.4790047 107.7014966
  78.4612259  52.3496573 118.0260244  78.9794203  53.0857600 117.7006732
  78.1067392  52.6560566 118.8607003  70.0411197  57.2101254 106.1421649
  69.3480442  57.2845609 105.4861685  69.7962949  56.4461598 106.6643166
  78.7124853  48.7696856 113.5461140  78.9926607  48.1020045 114.1721567
  79.4975460  48.9625951 113.0335804  76.5158322  67.9455850 105.1086167
  75.9432289  68.5646037 104.6556638  77.0891115  68.4955211 105.6426088
  82.5833711  57.1914490 117.2932715  83.5351134  57.2912587 117.3144939
  82.4137162  56.3992758 117.8030800  80.6048091  54.2770073 117.4792116
  80.0098023  54.5575086 116.7838605  80.3197788  54.7663974 118.2508857
  79.7355581  68.2293000 106.2394749  80.6686255  68.1638561 106.4427624
  79.6478794  69.0649267 105.7809281  82.3643598  67.5458870 103.1998696
  82.2857230  67.2118734 104.0934454  83.1853265  68.0380638 103.1990169
  85.0621789  60.4120609 116.4075015  85.0298109  59.4736610 116.5934699
  85.6722413  60.4904646 115.6740840  76.9005120  59.2816662 102.4502219
  77.8464225  59.1522870 102.5190637  76.5219365  58.5431324 102.9271647
  85.2116278  57.2031653 116.4533298  84.6955326  56.4190109 116.2663227
  86.0956226  56.8750369 116.6179818  82.8727005  50.9472668 112.4129111
  82.6751826  50.6387757 113.2972443  83.4826710  51.6734307 112.5427041
  90.8798339  61.4736616 115.5481052  91.6101728  61.2121904 116.1088755
  90.2705285  60.7365338 115.5883120  88.9613636  59.6144479 116.1455503
  88.2346800  59.4800444 115.5371995  88.5460923  59.9221307 116.9512221
  76.7843813  63.3334409 123.9102876  77.7046822  63.5113008 124.1042923
  76.7493396  62.3890454 123.7582575  75.0848037  57.2066639 102.3857104
  74.1779493  56.9099751 102.4619818  75.3624018  56.9096457 101.5191390
  66.0025978  58.5273002 112.8356151  65.6828762  57.6738310 112.5430525
  65.4559406  58.7421580 113.5914118  69.7805885  61.2435443 116.5525657
  69.9991895  62.1752551 116.5713691  70.1931659  60.8843418 117.3380461
  76.7010103  51.7503528 108.5401346  75.8910831  51.4050613 108.9156592
  77.3894520  51.4411072 109.1288957  78.6300651  50.8281575 110.1625642
  79.1831690  51.2477029 110.8215665  78.8670738  49.9017323 110.2048598
  74.6533751  56.8168649 125.9428406  74.5530477  57.7663006 125.8740497
  74.4355293  56.4886888 125.0704476  73.8546822  54.0653574 102.5269083
  74.7165986  54.3908472 102.7864901  74.0397166  53.2785070 102.0142149
  65.8714238  62.1475914 114.8049272  65.1777709  61.7329866 114.2919227
  66.6187229  62.1896450 114.2082691  82.0079458  52.9382100 109.6704306
  81.4278127  53.5966904 109.2882359  81.7415391  52.1159445 109.2591724
  80.4583025  52.3387158 111.8725627  80.9582803  52.4503693 111.0639946
  81.1018633  52.0348211 112.5126435  74.5165021  60.2465788 124.7593468
  74.0332102  61.0466148 124.9657357  74.6025960  60.2573733 123.8060912
  67.7850980  62.0794167 112.6815287  67.7621668  62.1781855 111.7297170
  68.0951617  62.9259318 113.0032453  70.4438358  64.1370322 116.7961902
  71.3981612  64.1054265 116.7291833  70.2450882  63.6760946 117.6112127
  71.0337740  62.7071439 119.3632699  71.8530629  63.2015517 119.3867536
  71.3074548  61.7903407 119.3350267  80.7904336  55.0982191 108.7260655
  79.9030191  55.3831841 108.5080849  81.2058325  54.9375954 107.8787932
  84.1418873  55.1228712 112.4414994  84.9179263  55.6125164 112.7139611
  83.4167007  55.5486766 112.8986863  86.5791431  55.8356331 113.4988935
  87.1735922  55.5952067 112.7882243  86.6518015  55.1163462 114.1262471
  68.7988587  69.6789942 113.8132099  68.6643055  68.9190343 113.2470097
  68.3820649  70.4030842 113.3460888  79.9347550  64.8626865 102.8208675
  80.6383400  65.0676868 103.4366330  79.2110199  65.4303627 103.0857758
  80.7645360  60.6136727 108.9410945  80.7080562  61.0705278 108.1018577
  81.3173703  59.8527411 108.7633788  84.5750166  56.4026459 109.7661064
  84.3187100  56.0023094 110.5969272  83.9503034  57.1170253 109.6411204
  88.8862504  59.1422532 112.2732356  88.3262062  59.2115721 113.0463918
  88.2806007  58.9663517 111.5531852  71.9557713  70.5759259 114.0250542
  71.8390097  71.5204691 113.9229232  71.1350159  70.2732821 114.4136341
  81.8434247  65.3009395 104.8707135  82.6779851  64.8690593 104.6884610
  81.6818590  65.1291408 105.7984029  81.4980139  61.8041508 106.2363474
  81.4428943  61.6385779 105.2951918  80.8726195  62.5117541 106.3925664
  66.2872654  57.0409572 120.0624896  66.9331518  56.5308526 120.5512121
  66.0789806  57.7778254 120.6368322  74.8076265  51.3049617 105.8148792
  74.7954935  52.2491457 105.9717063  75.6999687  51.1219762 105.5208254
  72.9812227  71.2287521 117.2406470  73.8839474  71.2611131 117.5572965
  72.7549597  70.2987972 117.2552806  74.7365829  69.9818507 113.9016549
  73.7861460  69.9820369 113.7880921  75.0398315  69.2351242 113.3852584
  78.6228384  47.8992394 110.0694729  77.8560780  47.3450880 110.2151412
  79.0339089  47.9714262 110.9308881  70.6270145  54.1877189 124.1599910
  71.4901607  53.8313994 124.3703235  70.0535556  53.8491084 124.8475315
  83.1395044  77.6241950 110.8920727  82.5759909  77.5331887 110.1237015
  83.0247439  76.8041855 111.3723220  80.6859476  79.1193142 113.7304948
  81.4780768  78.7783967 113.3151247  80.9256126  79.2288117 114.6507101
  88.7194603  81.2912918 106.2035192  88.0682583  81.8766998 105.8169206
  89.5138966  81.8219113 106.2630230  82.6450230  78.3802055 106.6022326
  83.4181106  77.8331042 106.4635202  82.9975629  79.2446305 106.8136788
  84.9816508  74.5394721 104.2340776  85.2342029  74.0176243 103.4724239
  84.0441067  74.3760867 104.3367460  90.0259791  73.5430500 112.0415520
  90.8122880  73.1249923 111.6905937  90.2898495  74.4476592 112.2097168
  90.1969868  78.9803350 106.7404176  89.5615701  79.0537976 107.4525081
  89.8667275  79.5696949 106.0623256  84.7012797  76.4422827 106.4365151
  84.5849055  75.7667731 107.1046236  84.8115057  75.9555201 105.6197304
  87.0444338  75.9032974 110.1411841  86.6802545  75.3763595 110.8524762
  87.9011454  75.5131443 109.9678326  86.6849825  70.9322874 105.1373189
  86.8524227  71.8003110 105.5043660  86.4946994  71.0950156 104.2134478
  82.8937639  75.8453650 112.8375724  81.9688136  75.7129864 113.0453416
  83.1422053  76.6247869 113.3345666  86.6639046  73.3880532 106.1219856
  86.5438671  73.8337582 106.9605336  85.9691634  73.7365849 105.5633394
  80.2546450  75.4886923 113.6719513  80.3838832  75.7421402 114.5858925
  79.5743902  76.0814631 113.3524168  92.3624112  73.8602005 106.9500190
  93.2741968  74.0929391 106.7747887  91.8533759  74.4439049 106.3875268
  89.7060086  70.0360041 115.1990051  88.8444566  70.3341294 115.4906788
  89.7322521  70.2530440 114.2671083  86.5221656  78.5802231 111.6063856
  86.9860001  78.8589934 110.8168479  86.2578454  77.6785676 111.4236947
  85.4590542  74.7025384 108.4153422  86.1614585  75.1546427 108.8827348
  85.1271170  74.0609203 109.0433315  79.2015876  72.9608936 113.7170555
  78.4114930  73.2166465 113.2410666  79.6927123  73.7757274 113.8222596
  81.1530621  73.3253516 110.6754032  80.3561785  73.4372210 111.1937528
  80.9256214  73.6640168 109.8094922  77.4853579  73.2139427 116.1485546
  77.7361617  74.0986437 116.4143122  78.0213127  73.0344028 115.3760638
  86.6984307  81.5166326 108.4915527  86.5629981  82.3617862 108.9200375
  87.2394119  81.7185604 107.7281461  80.1513704  79.0341764 109.0643452
  80.6638225  79.8285015 109.2149017  80.8036417  78.3368055 108.9977053
  81.9608589  82.1507521 111.1466205  82.1375217  83.0725485 110.9587189
  82.7565422  81.8365940 111.5760585  90.0476770  65.0396888 117.0214420
  89.7041040  65.9298530 116.9453531  90.4155733  64.8498546 116.1584005
  78.1162621  77.3630419 109.8403022  78.9537843  77.7727427 109.6236730
  78.2940888  76.4229861 109.8103216  90.0127053  75.0305499 105.5286855
  89.4973676  75.8010104 105.7675243  89.7404361  74.3570635 106.1519917
  87.5974164  69.8755200 110.5872094  86.7415760  69.4862050 110.4077732
  88.0101116  69.9547161 109.7271879  89.1273311  67.4101543 114.9863654
  88.6238106  67.3731678 114.1731459  89.4203917  68.3194286 115.0460310
  85.3716196  67.4940273 113.9929835  86.2369193  67.2983082 113.6335725
  85.4393705  67.2650625 114.9199192  94.9861327  77.7837854 107.4640029
  94.2090770  77.4449013 107.0195191  95.6652808  77.7890477 106.7894994
  89.8013356  72.9032591 107.3546637  89.4963492  73.2178741 108.2056780
  90.7543798  72.9814011 107.3973970  88.2459788  79.0622815 109.0039591
  87.7181149  78.3275574 108.6912828  87.7447291  79.8397491 108.7579559
  82.9778516  69.7242481 111.3646202  83.5522267  69.5017662 110.6319395
  83.5649498  69.7931175 112.1174803  83.3048103  71.7546942 105.3842087
  82.4685415  72.0921629 105.7051362  83.1652872  71.6195922 104.4469224
  85.2801183  66.5983730 110.0921271  84.6265596  66.2832747 109.4677886
  85.2381657  65.9759470 110.8181094  86.3912388  76.8803025 102.0074564
  85.4839450  76.6492278 102.2065713  86.8883420  76.0840644 102.1948545
  89.2980467  85.5900532 104.9271250  88.6242166  85.8932229 105.5356208
  89.6846289  86.3929612 104.5776707  88.5138924  73.0865663 114.4168919
  87.5961485  73.3080610 114.2590607  88.9299067  73.1611974 113.5580626
  89.2973971  74.4857079 109.5471599  90.0445790  74.9978476 109.2378721
  89.5665561  74.1641132 110.4075993  87.5700622  76.9815620 106.5298554
  86.6611841  76.6974653 106.6271023  87.5995705  77.4014698 105.6701861
  91.7452808  71.5214195 111.5290389  91.0075565  71.0091582 111.8600631
  91.9979582  71.0814577 110.7173666  91.8464436  64.2990447 112.1232158
  92.1523313  63.4387811 111.8358073  92.5717041  64.8908068 111.9231152
  78.1388792  74.7021134 110.5113756  77.9413192  74.1090495 109.7864822
  77.5835456  74.3973344 111.2289695  86.1185516  74.5944240 112.6308349
  86.1734125  73.6418077 112.5550826  85.3076718  74.7503679 113.1149647
  87.2676709  78.5224363 103.8686632  86.8296139  77.8060222 103.4092270
  88.0087150  78.7500478 103.3071724  84.0577875  73.2121300 110.3898728
  83.2445741  73.5115471 110.7963920  84.5536870  72.8176989 111.1073210
  83.5491950  70.7839656 116.0059963  84.1891330  70.6428415 115.3082926
  82.7169481  70.4974169 115.6298565  84.3252254  80.0842086 112.1194955
  85.1192853  79.5892406 111.9177530  83.6143947  79.5559949 111.7562661
  80.6335018  74.2285168 108.1954708  79.7032606  74.1669623 108.4124670
  80.7292490  73.7061121 107.3991349  80.5520567  70.7539981 110.7832950
  80.8127384  71.6685314 110.6742110  81.3737739  70.2864423 110.9329562
  82.0245492  72.1677738 117.9531774  82.6968545  71.9595100 117.3044423
  81.1975279  71.9699824 117.5137006  87.4971682  85.7580205 107.1418329
  87.6723438  85.2868248 107.9563952  86.8104470  86.3845971 107.3699590
  91.3887937  77.3808745 103.4618690  90.7717108  76.6555573 103.3651743
  90.9204425  78.1418105 103.1185764  83.1786483  71.5994169 102.5839994
  82.3015949  71.4782970 102.2202241  83.6544236  70.8080248 102.3318883
  74.6988623  76.3871329 112.6781501  75.3859663  76.0733059 112.0902517
  74.5436752  77.2912694 112.4048753  79.5023345  71.2761526 117.1066525
  79.4181534  70.6687195 116.3716935  78.6806052  71.7670544 117.1076021
  89.6747059  69.7615089 112.4736720  90.1715759  69.0085052 112.1537790
  88.9034040  69.7979406 111.9079929  90.7576840  78.5186776 110.0475143
  89.8233118  78.6388239 109.8779848  90.9353508  77.6159243 109.7835153
  86.2582028  71.9032472 112.2008405  85.8879815  71.3503513 112.8889310
  86.7541120  71.2990606 111.6483405  94.1449391  74.3604096 110.5825178
  94.6109843  75.1932087 110.5085480  94.5956892  73.8949077 111.2870436
  92.2125622  80.7047917 107.5811330  92.4885466  80.5904512 108.4905204
  91.3430121  80.3065402 107.5423503  92.1166054  66.7284683 114.6216079
  91.2029134  66.9588910 114.7898286  92.5459155  66.8123127 115.4730111
  74.2756599  74.4671923 114.9498968  74.3140699  73.9335513 115.7436086
  73.7696892  73.9407128 114.3309946  81.6547361  69.3136463 118.4461511
  81.7188688  70.1751294 118.0338908  81.5914482  68.7010465 117.7133869
  77.9065177  73.1936025 108.0252900  78.2018618  72.2846703 107.9719953
  77.0053212  73.1723764 107.7033902  81.4359424  71.2692021 114.0080448
  80.7146009  71.8827989 113.8687922  82.2252679  71.8049786 113.9297094
  79.6353018  70.8750122 108.1492225  79.3065724  69.9947501 107.9667331
  79.9892389  70.8197791 109.0368614  82.7494841  71.1623092 108.5167703
  83.0890914  71.6909013 107.7946311  83.1966962  71.5003498 109.2926269
  85.4438282  69.5460143 117.9670771  85.1035103  68.7467956 118.3691451
  84.7377289  69.8461854 117.3947604  86.0954754  66.6309455 116.4198094
  86.9180823  66.1569933 116.2976984  86.3392818  67.4099939 116.9196780
  84.7362989  69.6597714 106.7160995  85.4571351  70.0378966 106.2124712
  84.1128293  70.3786591 106.8195973  88.8794111  70.3642863 107.6519328
  89.0957726  71.2467501 107.3508156  88.3988179  69.9729076 106.9224970
  83.6193333  73.3228576 114.2290072  83.4737914  73.6368879 115.1214354
  83.1418536  73.9413476 113.6760971  85.4789716  70.3131124 114.2770962
  85.4651284  69.4172217 113.9403260  86.1962144  70.3201788 114.9109248
  87.3315846  70.7468464 116.3224089  87.0733624  71.6685535 116.3208420
  86.8000887  70.3498899 117.0124553  78.0938995  75.8633920 117.1677733
  77.5492463  76.6393728 117.2998008  78.9718345  76.2104725 117.0096855
  84.8826612  69.1945504 109.5458532  85.0042523  68.2662150 109.7449419
  84.5928654  69.2084190 108.6336847  87.7517802  66.8800415 112.6825252
  87.7739499  66.9439748 111.7277231  88.1685861  66.0404923 112.8765758
  93.2637208  83.1686016 106.2011073  93.9588112  83.7892708 106.4198388
  93.6060358  82.3181367 106.4763451  95.1628631  80.6185721 107.7298404
  95.6879955  80.9572994 107.0047724  95.0750983  79.6832736 107.5461538
  79.3261631  82.8769245 112.0918285  80.1519650  82.5773017 111.7116929
  78.9755683  82.1076868 112.5408074  77.5270236  80.7955572 113.0507219
  76.6902144  80.3677746 112.8691220  77.4993881  80.9888015 113.9878010
  83.8556671  80.7799637 107.6374419  84.0044791  81.4635101 106.9841092
  84.6623114  80.7604727 108.1523875  81.6109304  76.8064814 108.6435488
  81.3655346  75.9027144 108.8415698  81.7805218  76.8081965 107.7014966
  80.8804951  72.5393172 106.1421649  80.1874196  72.6137527 105.4861685
  80.6356703  71.7753516 106.6643166  89.5518608  64.0988773 113.5461140
  89.8320361  63.4311962 114.1721567  90.3369215  64.2917869 113.0335804
  87.3552076  83.2747767 105.1086167  86.7826043  83.8937954 104.6556638
  87.9284870  83.8247129 105.6426088  90.5749336  83.5584917 106.2394749
  91.5080009  83.4930479 106.4427624  90.4872549  84.3941184 105.7809281
  93.2037353  82.8750788 103.1998696  93.1250984  82.5410651 104.0934454
  94.0247019  83.3672556 103.1990169  87.7398875  74.6108580 102.4502219
  88.6857979  74.4814788 102.5190637  87.3613120  73.8723242 102.9271647
  93.7120759  66.2764586 112.4129111  93.5145580  65.9679674 113.2972443
  94.3220465  67.0026225 112.5427041  85.9241792  72.5358556 102.3857104
  85.0173247  72.2391669 102.4619818  86.2017773  72.2388375 101.5191390
  76.8419732  73.8564920 112.8356151  76.5222517  73.0030228 112.5430525
  76.2953160  74.0713498 113.5914118  87.5403858  67.0795446 108.5401346
  86.7304586  66.7342531 108.9156592  88.2288274  66.7702990 109.1288957
  89.4694406  66.1573493 110.1625642  90.0225444  66.5768946 110.8215665
  89.7064492  65.2309241 110.2048598  84.6940576  69.3945492 102.5269083
  85.5559740  69.7200390 102.7864901  84.8790921  68.6076988 102.0142149
  76.7107992  77.4767831 114.8049272  76.0171464  77.0621784 114.2919227
  77.4580983  77.5188368 114.2082691  92.8473213  68.2674018 109.6704306
  92.2671882  68.9258822 109.2882359  92.5809146  67.4451363 109.2591724
  91.2976779  67.6679076 111.8725627  91.7976558  67.7795610 111.0639946
  91.9412387  67.3640129 112.5126435  78.6244735  77.4086085 112.6815287
  78.6015423  77.5073772 111.7297170  78.9345371  78.2551236 113.0032453
  91.6298091  70.4274109 108.7260655  90.7423946  70.7123759 108.5080849
  92.0452080  70.2667872 107.8787932  94.9812627  70.4520629 112.4414994
  95.7573017  70.9417082 112.7139611  94.2560761  70.8778684 112.8986863
  90.7741304  80.1918783 102.8208675  91.4777154  80.3968786 103.4366330
  90.0503953  80.7595545 103.0857758  91.6039115  75.9428644 108.9410945
  91.5474316  76.3997196 108.1018577  92.1567457  75.1819329 108.7633788
  95.4143921  71.7318376 109.7661064  95.1580855  71.3315012 110.5969272
  94.7896789  72.4462170 109.6411204  92.6828002  80.6301312 104.8707135
  93.5173606  80.1982511 104.6884610  92.5212345  80.4583326 105.7984029
  92.3373894  77.1333426 106.2363474  92.2822698  76.9677697 105.2951918
  91.7119949  77.8409459 106.3925664  85.6470019  66.6341535 105.8148792
  85.6348689  67.5783375 105.9717063  86.5393441  66.4511680 105.5208254
  89.4622139  63.2284311 110.0694729  88.6954535  62.6742798 110.2151412
  89.8732844  63.3006180 110.9308881  94.0180237  86.9286087 102.5839994
  93.1409704  86.8074888 102.2202241  94.4937990  86.1372165 102.3318883
  96.7635546  87.8650474 102.3857104  95.8567002  87.5683587 102.4619818
  97.0411527  87.5680292 101.5191390  95.5334331  84.7237409 102.5269083
  96.3953495  85.0492308 102.7864901  95.7184675  83.9368905 102.0142149
  96.4863774  81.9633452 105.8148792  96.4742444  82.9075292 105.9717063
  97.3787196  81.7803598 105.5208254  45.9405450   1.2794984  91.6516556
  45.2667149   1.5826681  92.2601514  46.3271272   2.0824064  91.3022013
  49.9062191  -1.1419532  92.9256380  50.6013096  -0.5212840  93.1443694
  50.2485341  -1.9924181  93.2008757  47.2174319  -0.7520631  92.9640055
  48.1504992  -0.8175069  93.1672931  47.1297532   0.0835636  92.5054588
  49.8462336  -1.4354760  89.9244003  49.7675967  -1.7694897  90.8179761
  50.6672003  -0.9432992  89.9235475  47.4166288  -4.1186765  89.5453981
  48.1202138  -3.9136762  90.1611637  46.6928936  -3.5510003  89.8103065
  57.9537260   6.8365415 101.6907618  58.5915670   6.7172163 100.9870958
  57.8358103   7.7846259 101.7495570  50.6213782   8.6428320  97.6166034
  50.0578647   8.5518257  96.8482322  50.5066177   7.8228224  98.0968526
  56.2013341  12.3099288  92.9280499  55.5501321  12.8953368  92.5414512
  56.9957704  12.8405483  92.9875536  50.1268968   9.3988425  93.3267633
  50.8999844   8.8517412  93.1880509  50.4794367  10.2632674  93.5382094
  52.4635246   5.5581091  90.9586083  52.7160767   5.0362612  90.1969546
  51.5259805   5.3947236  91.0612767  57.5078529   4.5616869  98.7660826
  58.2941618   4.1436292  98.4151243  57.7717233   5.4662961  98.9342475
  57.6788606   9.9989720  93.4649483  57.0434439  10.0724346  94.1770388
  57.3486012  10.5883318  92.7868562  62.9086956   4.4992102  99.6693805
  63.6412128   3.9291319  99.9031634  62.1526311   4.1113703 100.1100310
  52.1831535   7.4609197  93.1610458  52.0667793   6.7854100  93.8291542
  52.2933794   6.9741571  92.3442611  54.5263075   6.9219344  96.8657147
  54.1621283   6.3949965  97.5770069  55.3830191   6.5317813  96.6923633
  54.1668562   1.9509244  91.8618496  54.3342965   2.8189480  92.2288967
  53.9765732   2.1136525  90.9379785  54.1457783   4.4066901  92.8465162
  54.0257409   4.8523952  93.6850643  53.4510372   4.7552219  92.2878701
  51.9064675  17.1770543  96.4955294  51.8288705  18.1278368  96.5743774
  51.3026319  16.8316415  97.1530220  59.8442850   4.8788374  93.6745497
  60.7560706   5.1115761  93.4993194  59.3352497   5.4625419  93.1120575
  58.4512432   9.8614193 101.0659078  57.8221294  10.0259907 100.3635146
  58.0638094  10.2755802 101.8370042  62.3301664  10.7968631  98.4203442
  61.6452702  11.1767532  97.8700475  62.4145513  11.4063957  99.1535390
  54.0040394   9.5988601  98.3309163  54.4678739   9.8776304  97.5413786
  53.7397192   8.6972045  98.1482254  52.9409280   5.7211753  95.1398728
  53.6433323   6.1732797  95.6072655  52.6089908   5.0795572  95.7678621
  60.6998423  11.3200545 103.1921143  61.5215867  10.9180732 102.9103824
  60.6960826  11.2168779 104.1437258  68.7904416   7.6639294  99.5406114
  68.0368125   7.0946692  99.3850119  68.9251958   7.6301958 100.4876749
  54.1803044  12.5352696  95.2160833  54.0448719  13.3804232  95.6445681
  54.7212857  12.7371973  94.4526767  47.6332442  10.0528134  95.7888759
  48.1456962  10.8471384  95.9394323  48.2855155   9.3554424  95.7222360
  49.4427326  13.1693890  97.8711512  49.6193955  14.0911855  97.6832496
  50.2384160  12.8552309  98.3005891  45.5981359   8.3816788  96.5648329
  46.4356581   8.7913797  96.3482037  45.7759626   7.4416230  96.5348523
  57.4945791   6.0491869  92.2532162  56.9792414   6.8196473  92.4920549
  57.2223099   5.3757005  92.8765223  62.4680065   8.8024223  94.1885336
  61.6909508   8.4635383  93.7440498  63.1471546   8.8076847  93.5140301
  57.2832094   3.9218961  94.0791943  56.9782229   4.2365110  94.9302086
  58.2362536   4.0000381  94.1219276  55.7278526  10.0809184  95.7284897
  55.1999887   9.3461944  95.4158135  55.2266028  10.8583861  95.4824866
  60.7071372   8.2758205 100.8451943  60.0495046   8.9657466 100.9332072
  61.5111771   8.6654637 101.1885930  59.5176831   6.6302577  98.8955885
  60.0308712   7.2632569  99.3977595  60.1678054   6.0303773  98.5299245
  50.7866840   2.7733312  92.1087394  49.9504153   3.1107998  92.4296669
  50.6471610   2.6382291  91.1714531  53.8731126   7.8989395  88.7319870
  52.9658188   7.6678648  88.9311019  54.3702158   7.1027014  88.9193852
  56.7799205  16.6086902  91.6516556  56.1060904  16.9118598  92.2601514
  57.1665027  17.4115982  91.3022013  56.7792709   5.5043449  96.2716906
  57.5264528   6.0164846  95.9624028  57.0484299   5.1827501  97.1321300
  55.0519359   8.0001989  93.2543860  54.1430579   7.7161022  93.3516330
  55.0814443   8.4201068  92.3947167  60.2838627  11.6108579  97.0235028
  59.8300954  10.7699489  97.0800218  59.6532593  12.2469977  97.3609808
  59.2271546   2.5400565  98.2535695  58.4894303   2.0277951  98.5845938
  59.4798320   2.1000947  97.4418972  58.7271566  13.4485076  97.9584846
  59.0194540  14.0090133  97.2397212  59.2370187  13.7413637  98.7138005
  54.7495447   9.5410733  90.5931939  54.3114877   8.8246592  90.1337576
  55.4905888   9.7686848  90.0317030  51.5396613   4.2307670  97.1144035
  50.7264479   4.5301840  97.5209227  52.0355607   3.8363358  97.8318517
  53.6905191  14.2265427  99.0478299  53.6481370  14.4526273  98.1186831
  54.6067890  13.9928801  99.1964100  62.8668562   7.8167930  96.6508257
  62.7286460   8.0069526  95.7229447  62.5104781   8.5787313  97.1076309
  62.8937941   9.8844457 101.6619529  63.3274448   9.7919746 102.5102583
  63.6069522   9.8601958 101.0239545  51.8070992  11.1028456  98.8440262
  52.6011590  10.6078776  98.6422837  51.0962684  10.5746319  98.4807968
  56.6265836  13.4846551 103.1952630  56.6802859  14.0537488 103.9630345
  55.7580618  13.6548436 102.8306667  48.1153755   5.2471537  94.9200015
  47.1851343   5.1855993  95.1369977  48.2111227   4.7247490  94.1236656
  63.7553491   9.9268158 104.1952414  63.9489381  10.8313968 104.4411689
  63.6554109   9.4675577 105.0290999  54.9790420  16.7766574  93.8663636
  55.1542176  16.3054617  94.6809258  54.2923208  17.4032340  94.0944896
  55.9347483  11.0539080  99.9126937  55.5997316  11.0139850 100.8084587
  55.4351429  10.3883796  99.4397347  58.8706675   8.3995115  90.1863996
  58.2535845   7.6741943  90.0897049  58.4023163   9.1604475  89.8431071
  49.5451505  19.9255937 100.6403496  49.7848103  20.5574461 101.3182514
  48.7020702  19.5743977 100.9268855  50.6605221   2.6180539  89.3085301
  49.7834687   2.4969340  88.9447547  51.1362974   1.8266617  89.0564189
  54.0579367  15.7335059 103.0445000  53.9849539  16.5390031 103.5564304
  53.6156760  15.9327025 102.2193021  53.8469147  14.9706829  96.5547821
  53.0636669  15.5128510  96.6486046  54.5461892  15.4880809  96.9542062
  65.0095554   6.4841824 100.8400318  64.9985430   7.3666540 100.4694251
  64.1412934   6.1313375 100.6454855  56.5178051  15.6321893 105.2003158
  57.2306023  16.2669358 105.1279060  56.0268079  15.7285759 104.3843160
  58.2395577   9.5373146  96.7720450  57.3051856   9.6574608  96.6025154
  58.4172246   8.6345613  96.5080460  61.6268129   5.3790465  97.3070484
  62.0928581   6.2118457  97.2330787  62.0775629   4.9135447  98.0115743
  59.6944360  11.7234287  94.3056636  59.9704204  11.6090881  95.2150510
  58.8248859  11.3251771  94.2668809  56.3298424  15.9720637  97.9489450
  56.5120818  15.1542293  98.4117202  57.1531410  16.1888330  97.5114340
  56.6640589  14.8988823  95.2104498  57.1928356  14.3881277  94.5974660
  56.9268809  14.5831353  96.0750031  50.0196337  15.9503939  97.9702274
  49.3506713  16.4350067  97.4866314  49.8809207  16.1973160  98.8845653
  54.1601606  17.9847683 104.5684933  54.7119914  18.1479304 105.3334018
  54.5007799  18.5752121 103.8964957  45.3883914   4.2122394  94.7498206
  45.6837356   3.3033073  94.6965260  44.4871950   4.1910134  94.4279209
  57.2969993  15.9329658 101.5548615  57.1721133  15.1319398 101.0459560
  57.9549084  16.4275852 101.0662585  59.3604902  13.7338678 103.1828165
  58.4135237  13.6144030 103.1106492  59.7087675  12.8461176 103.2654426
  56.3651335  13.5291395  99.3832517  56.2176297  12.6008102  99.5640087
  57.1904828  13.5511485  98.8989592  50.2313579   2.1809462  95.2413009
  50.5709652   2.7095383  94.5191618  50.6785700   2.5189868  96.0171576
  59.9685457  14.3519953 100.4697390  60.8932004  14.1462815 100.3321841
  59.8000760  14.1036354 101.3786731  52.2181726   0.6784083  93.4406302
  52.9390089   1.0565336  92.9370019  51.5947030   1.3972960  93.5441280
  56.3612849   1.3829232  94.3764634  56.5776464   2.2653870  94.0753462
  55.8806916   0.9915446  93.6470276  59.7580773  14.8705621  95.8259481
  59.9317651  14.3052043  95.0733334  60.2509664  15.6706516  95.6438971
  65.6120164   7.6342044  97.4449781  66.0551310   6.8849369  97.0468904
  64.7346674   7.6252180  97.0623513  60.7455945  14.1872385  92.9256380
  61.4406850  14.8079078  93.1443694  61.0879096  13.3367736  93.2008757
  62.6447369  11.6372091  94.4543710  63.1698693  11.9759363  93.7293030
  62.5569721  10.7019106  94.2706845  54.3288029  17.7044074  98.8138964
  53.8893020  17.2120453  99.5071820  55.0796146  17.1617042  98.5731039
  46.8080368  13.8955615  98.8163592  47.6338388  13.5959387  98.4362235
  46.4574420  13.1263237  99.2653380  51.7761901  13.2482083 100.8861265
  51.1541911  12.5852788 100.5863493  52.4466768  13.2743215 100.2034913
  51.3375408  11.7986006  94.3619726  51.4863529  12.4821471  93.7086398
  52.1441852  11.7791096  94.8769181  65.1553029   9.1047282  99.8372229
  65.9899920   9.5437086 100.0009789  65.2912158   8.6285935  99.0180474
  49.0928041   7.8251184  95.3680795  48.8474083   6.9213514  95.5661005
  49.2623956   7.8268335  94.4260273  48.3623689   3.5579542  92.8666956
  47.6692934   3.6323897  92.2106992  48.1175441   2.7939885  93.3888473
  54.8370814  14.2934137  91.8331473  54.2644781  14.9124324  91.3801945
  55.4103608  14.8433499  92.3671395  58.0568074  14.5771287  92.9640055
  58.9898747  14.5116849  93.1672931  57.9691287  15.4127554  92.5054588
  60.6856090  13.8937157  89.9244003  60.6069722  13.5597021  90.8179761
  61.5065757  14.3858925  89.9235475  63.3834282   6.7598897 103.1320322
  63.3510602   5.8214897 103.3180005  63.9934905   6.8382933 102.3986146
  55.2217612   5.6294950  89.1747526  56.1676717   5.5001158  89.2435944
  54.8431857   4.8909612  89.6516954  69.2010831   7.8214903 102.2726358
  69.9314220   7.5600192 102.8334062  68.5917777   7.0843625 102.3128426
  67.2826129   5.9622766 102.8700810  66.5559292   5.8278731 102.2617301
  66.8673415   6.2699595 103.6757528  53.4060530   3.5544926  89.1102411
  52.4991985   3.2578039  89.1865124  53.6836511   3.2574744  88.2436697
  52.1759314   0.4131861  89.2514390  53.0378478   0.7386760  89.5110207
  52.3609658  -0.3736643  88.7387456  60.3291951  -0.7139612  96.3949613
  59.7490620  -0.0554808  96.0127665  60.0627883  -1.5362268  95.9837031
  59.1116829   1.4460478  95.4505961  58.2242684   1.7310129  95.2326156
  59.5270818   1.2854241  94.6033238  62.4631365   1.4706999  99.1660301
  63.2391755   1.9603452  99.4384917  61.7379499   1.8965053  99.6232170
  64.9003923   2.1834618 100.2234241  65.4948414   1.9430354  99.5127549
  64.9730507   1.4641749 100.8507777  47.1201079  16.0268229 100.5377406
  46.9855547  15.2668630  99.9715404  46.7033141  16.7509129 100.0706195
  58.2560042  11.2105153  89.5453981  58.9595892  11.4155155  90.1611637
  57.5322691  11.7781915  89.8103065  59.0857852   6.9615014  95.6656251
  59.0293054   7.4183565  94.8263884  59.6386195   6.2005699  95.4879094
  62.8962658   2.7504746  96.4906371  62.6399593   2.3501382  97.3214579
  62.2715526   3.4648540  96.3656510  67.2074996   5.4900819  98.9977662
  66.6474554   5.5594008  99.7709224  66.6018500   5.3141804  98.2777159
  50.2770205  16.9237546 100.7495849  50.1602589  17.8682979 100.6474539
  49.4562651  16.6211108 101.1381648  60.1646740  11.6487682  91.5952441
  60.9992343  11.2168880  91.4129916  60.0031082  11.4769696  92.5229336
  59.8192632   8.1519795  92.9608781  59.7641436   7.9864067  92.0197225
  59.1938687   8.8595828  93.1170970  53.1288757  -2.3472096  92.5394099
  53.1167427  -1.4030256  92.6962370  54.0212179  -2.5301950  92.2453560
  51.3024719  17.5765808 103.9651777  52.2051966  17.6089418 104.2818272
  51.0762089  16.6466259 103.9798113  53.0578321  16.3296795 100.6261856
  52.1073952  16.3298656 100.5126228  53.3610807  15.5829529 100.1097890
  68.7931015  22.1657333 101.6907618  69.4309425  22.0464080 100.9870958
  68.6751858  23.1138177 101.7495570  65.6020721  22.1184761 101.6269143
  65.2639232  22.0025826 100.7389678  66.4710489  21.7175926 101.6070149
  61.4607537  23.9720238  97.6166034  60.8972402  23.8810175  96.8482322
  61.3459932  23.1520142  98.0968526  66.0840504  23.2719613 107.5855348
  66.0729145  22.8772411 106.7135852  66.2461143  22.5385686 108.1789120
  59.0071969  25.4671429 100.4550254  59.7993260  25.1262254 100.0396554
  59.2468619  25.5766404 101.3752408  67.0407095  27.6391205  92.9280499
  66.3895075  28.2245286  92.5414512  67.8351458  28.1697400  92.9875536
  60.9662722  24.7280342  93.3267633  61.7393598  24.1809330  93.1880509
  61.3188121  25.5924592  93.5382094  62.8047765  26.0556725 106.5334532
  62.5137631  26.9602356 106.4181199  63.4404749  26.0973252 107.2478602
  63.7303972  23.4333573 103.1235892  64.3267544  23.2089596 102.4092855
  63.7878943  22.6918319 103.7261340  63.3029000  20.8873009  90.9586083
  63.5554521  20.3654530  90.1969546  62.3653559  20.7239154  91.0612767
  68.3472283  19.8908787  98.7660826  69.1335372  19.4728210  98.4151243
  68.6110987  20.7954879  98.9342475  68.5182360  25.3281637  93.4649483
  67.8828193  25.4016264  94.1770388  68.1879767  25.9175236  92.7868562
  73.7480710  19.8284020  99.6693805  74.4805882  19.2583237  99.9031634
  72.9920066  19.4405621 100.1100310  63.0225289  22.7901115  93.1610458
  62.9061547  22.1146018  93.8291542  63.1327549  22.3033488  92.3442611
  65.3656830  22.2511262  96.8657147  65.0015037  21.7241883  97.5770069
  66.2223946  21.8609731  96.6923633  71.2706131  13.5405594 104.1288413
  70.9389455  14.4101005 103.9049628  70.6751744  13.2241878 104.8082444
  65.0062317  17.2801161  91.8618496  65.1736719  18.1481398  92.2288967
  64.8159486  17.4428443  90.9379785  67.7637650  25.7418140 103.5284326
  67.4638373  26.6443179 103.4200133  67.4188710  25.4750323 104.3805479
  61.2150132  22.1931937  99.5621030  60.2900628  22.0608151  99.7698722
  61.4634545  22.9726156 100.0590973  71.1634794  18.2600680 101.2081763
  70.2551671  18.1916089 100.9140524  71.1122390  18.7372625 102.0363589
  64.9851538  19.7358819  92.8465162  64.8651163  20.1815870  93.6850643
  64.2904126  20.0844136  92.2878701  58.5758943  21.8365211 100.3964820
  58.7051324  22.0899690 101.3104231  57.8956394  22.4292919 100.0769475
  62.7458430  32.5062461  96.4955294  62.6682460  33.4570286  96.5743774
  62.1420074  32.1608333  97.1530220  65.2375660  19.6790326 109.1516661
  64.4608994  20.2384246 109.1419525  65.8766223  20.1647109 109.6731531
  73.0296440  16.4617119 102.9859637  72.3870821  16.7549652 102.3399432
  72.5251369  16.3470039 103.7912834  70.6836604  20.2080292  93.6745497
  71.5954460  20.4407679  93.4993194  70.1746251  20.7917336  93.1120575
  63.4922032  22.4875779 108.7134628  64.2336716  23.0260823 108.4369451
  62.7859017  23.1142068 108.8706179  68.9677372  24.6304920 107.3106789
  69.3760728  24.1887330 106.5661421  68.2454633  24.0557547 107.5640982
  65.3208442  19.5677527 104.6840346  66.1669637  19.9916940 104.8274995
  65.2607079  18.9111151 105.3778909  69.2906186  25.1906110 101.0659078
  68.6615049  25.3551825 100.3635146  68.9031848  25.6047720 101.8370042
  73.1695418  26.1260548  98.4203442  72.4846456  26.5059450  97.8700475
  73.2539268  26.7355875  99.1535390  68.4707887  17.2281895 106.3421520
  68.2268819  17.9823955 105.8055795  68.7467818  17.6067243 107.1768767
  70.4246350  23.7720507 105.0198785  70.6363245  24.4152267 104.3433166
  70.3776098  22.9382824 104.5520715  68.0272579  16.3838328 101.9235357
  67.1657058  16.6819582 102.2152095  68.0535013  16.6008727 100.9916390
  64.8434148  24.9280519  98.3309163  65.3072494  25.2068222  97.5413786
  64.5790946  24.0263963  98.1482254  61.7358229  24.4752000 101.2688926
  62.3059586  24.9039268 100.6306411  62.3266341  24.1934585 101.9673112
  63.7803034  21.0503671  95.1398728  64.4827078  21.5024715  95.6072655
  63.4483663  20.4087490  95.7678621  62.2283396  19.6415428 109.5149938
  61.5982056  20.3231708 109.7485334  62.1219484  19.5298509 108.5703076
  57.5228368  19.3087224 100.4415862  56.7327422  19.5644752  99.9655972
  58.0139616  20.1235561 100.5467902  71.5392178  26.6492463 103.1921143
  72.3609621  26.2472650 102.9103824  71.5354581  26.5460697 104.1437258
  59.4743114  19.6731803  97.3999338  58.6774277  19.7850497  97.9182834
  59.2468706  20.0118455  96.5340229  65.3048781  26.1976506 105.3481853
  65.3693214  26.6596913 106.1840025  64.5959705  25.5673871 105.4764163
  55.8066071  19.5617714 102.8730853  56.0574110  20.4464724 103.1388429
  56.3425620  19.3822316 102.1005944  79.6298171  22.9931211  99.5406114
  78.8761879  22.4238609  99.3850119  79.7645712  22.9593876 100.4876749
  65.0196799  27.8644614  95.2160833  64.8842474  28.7096149  95.6445681
  65.5606611  28.0663891  94.4526767  58.4726196  25.3820052  95.7888759
  58.9850717  26.1763302  95.9394323  59.1248909  24.6846342  95.7222360
  60.2821081  28.4985808  97.8711512  60.4587709  29.4203773  97.6832496
  61.0777914  28.1844227  98.3005891  64.4232099  15.3594072 109.4695445
  65.1641813  15.9601226 109.3899908  64.6550022  14.6171710 108.9113488
  59.5673438  20.5450440 107.7473675  59.4526953  19.6435697 108.0480774
  58.7117955  20.7914136 107.3958491  66.6465275  28.4868180 109.3461176
  66.2029129  27.7004559 109.0282080  67.3082489  28.6747331 108.6805066
  61.4052396  30.0163982 103.8721854  61.9559822  29.8881045 103.0998848
  60.5663872  30.3158871 103.5216747  68.7446513  28.7670980 107.3742577
  68.7264989  29.5879861 106.8822846  69.6666433  28.6425055 107.5992718
  65.2019567  26.2815109 108.2166085  65.7347904  25.5203398 107.9865393
  64.6733649  25.9888761 108.9590240  68.3689262  11.3875175 103.7459727
  68.0253532  12.2776817 103.6698837  68.7368225  11.1976833 102.8829312
  56.4375113  23.7108706  96.5648329  57.2750335  24.1205714  96.3482037
  56.6153381  22.7708148  96.5348523  68.3339545  21.3783786  92.2532162
  67.8186169  22.1488391  92.4920549  68.0616854  20.7048923  92.8765223
  65.9186656  16.2233487  97.3117400  65.0628253  15.8340338  97.1323039
  66.3313608  16.3025448  96.4517186  67.4485803  13.7579831 101.7108960
  66.9450598  13.7209966 100.8976765  67.7416410  14.6672573 101.7705617
  63.6928689  13.8418560 100.7175142  64.5581685  13.6461369 100.3581031
  63.7606198  13.6128912 101.6444499  73.3073819  24.1316141  94.1885336
  72.5303262  23.7927301  93.7440498  73.9865300  24.1368764  93.5140301
  68.1225848  19.2510879  94.0791943  67.8175984  19.5657028  94.9302086
  69.0756290  19.3292298  94.1219276  66.5672280  25.4101102  95.7284897
  66.0393642  24.6753861  95.4158135  66.0659783  26.1875778  95.4824866
  71.5465126  23.6050122 100.8451943  70.8888801  24.2949384 100.9332072
  72.3505525  23.9946554 101.1885930  61.2991008  16.0720768  98.0891509
  61.8734760  15.8495950  97.3564702  61.8861990  16.1409463  98.8420110
  70.3570585  21.9594495  98.8955885  70.8702467  22.5924487  99.3977595
  71.0071809  21.3595691  98.5299245  61.6260595  18.1025229  92.1087394
  60.7897907  18.4399916  92.4296669  61.4865365  17.9674209  91.1714531
  63.6013675  12.9462017  96.8166578  62.9478088  12.6311034  96.1923193
  63.5594150  12.3237758  97.5426401  64.7124880  23.2281312  88.7319870
  63.8051942  22.9970566  88.9311019  65.2095912  22.4318931  88.9193852
  67.6192959  31.9378819  91.6516556  66.9454658  32.2410516  92.2601514
  68.0058781  32.7407900  91.3022013  66.8351416  19.4343951 101.1414226
  65.9173977  19.6558898 100.9835914  67.2511559  19.5090261 100.2825933
  67.6186464  20.8335366  96.2716906  68.3658283  21.3456764  95.9624028
  67.8878053  20.5119419  97.1321300  65.8913114  23.3293907  93.2543860
  64.9824333  23.0452940  93.3516330  65.9208198  23.7492986  92.3947167
  71.1232381  26.9400497  97.0235028  70.6694708  26.0991406  97.0800218
  70.4926348  27.5761895  97.3609808  70.0665301  17.8692483  98.2535695
  69.3288058  17.3569869  98.5845938  70.3192074  17.4292864  97.4418972
  69.5665320  28.7776993  97.9584846  69.8588295  29.3382050  97.2397212
  70.0763941  29.0705554  98.7138005  70.1676928  10.6468735  98.8477465
  70.4735805   9.7866098  98.5603380  70.8929533  11.2386355  98.6476458
  56.4601284  21.0499421  97.2359063  56.2625684  20.4568782  96.5110129
  55.9047948  20.7451631  97.9535001  64.4398008  20.9422528  99.3553656
  64.4946618  19.9896364  99.2796132  63.6289210  21.0981967  99.8394954
  65.5889202  24.8702651  90.5931939  65.1508632  24.1538510  90.1337576
  66.3299642  25.0978766  90.0317030  62.3790368  19.5599587  97.1144035
  61.5658233  19.8593758  97.5209227  62.8749362  19.1655276  97.8318517
  64.5298946  29.5557344  99.0478299  64.4875124  29.7818191  98.1186831
  65.4461644  29.3220719  99.1964100  67.9764579  20.0241412 105.9458928
  68.3313967  20.2512885 106.8053394  68.6236711  20.3559789 105.3236184
  73.7062316  23.1459848  96.6508257  73.5680215  23.3361444  95.7229447
  73.3498535  23.9079231  97.1076309  61.8704443  17.1317943 102.7305269
  62.5103822  16.9906702 102.0328233  61.0381973  16.8452456 102.3543871
  73.7331696  25.2136375 101.6619529  74.1668203  25.1211664 102.5102583
  74.4463277  25.1893875 101.0239545  62.6464746  26.4320373  98.8440262
  63.4405345  25.9370693  98.6422837  61.9356439  25.9038236  98.4807968
  67.4659591  28.8138469 103.1952630  67.5196613  29.3829405 103.9630345
  66.5974372  28.9840354 102.8306667  58.9547510  20.5763455  94.9200015
  58.0245098  20.5147911  95.1369977  59.0504982  20.0539408  94.1236656
  58.8733059  17.1018268  97.5078256  59.1339876  18.0163601  97.3987417
  59.6950231  16.6342710  97.6574869  60.3457984  18.5156025 104.6777081
  61.0181038  18.3073387 104.0289730  59.5187771  18.3178111 104.2382313
  74.5947246  25.2560075 104.1952414  74.7883136  26.1605886 104.4411689
  74.4947864  24.7967494 105.0290999  66.2483556  15.1417966 106.6942742
  65.6011471  15.8407916 106.6007218  67.0184572  15.5754110 107.0618990
  69.6562354  25.4066818 109.7693295  69.5047861  25.1777370 108.8523379
  69.6467034  26.3637420 109.7824640  66.4247691  22.9798731 104.7539561
  67.3539751  23.1309891 104.5808529  66.0038721  23.0682752 103.8988208
  65.2236022  27.0049395 102.5238099  65.0847108  26.6368180 103.3964037
  64.4350619  27.5197035 102.3522057  65.8184174  32.1058492  93.8663636
  65.9935930  31.6346535  94.6809258  65.1316962  32.7324258  94.0944896
  66.7741238  26.3830998  99.9126937  66.4391070  26.3431768 100.8084587
  66.2745183  25.7175714  99.4397347  60.7485482  21.7898628 105.4379518
  60.6105279  21.0578867 106.0391057  61.6590405  21.7007528 105.1563706
  69.7100429  23.7287032  90.1863996  69.0929600  23.0033861  90.0897049
  69.2416918  24.4896393  89.8431071  63.3767782  21.5018587 104.9263198
  64.0867401  20.8611780 104.8849816  63.3337090  21.7531482 105.8489378
  71.3654561  28.4385941 107.8469777  71.3067107  27.7545161 107.1800360
  71.7674079  29.1804931 107.3950403  62.0896716  18.4883805 106.7458837
  61.5534073  18.0374544 107.3980433  61.5013425  18.6229714 106.0029301
  60.3845260  35.2547855 100.6403496  60.6241858  35.8866379 101.3182514
  59.5414456  34.9035895 100.9268855  61.4998975  17.9472457  89.3085301
  60.6228441  17.8261257  88.9447547  61.9756728  17.1558535  89.0564189
  71.3671968  26.4025525 106.0783757  70.4798747  26.0651446 106.2010155
  71.9370519  25.6708556 106.3152522  53.0201115  22.7349616  99.4026808
  53.7072155  22.4211346  98.8147823  52.8649244  23.6390981  99.1294059
  57.8235837  17.6239813 103.8311832  57.7394026  17.0165483 103.0962242
  57.0018544  18.1148831 103.8321328  64.8973122  31.0626977 103.0445000
  64.8243293  31.8681948 103.5564304  64.4550515  31.2618943 102.2193021
  64.6862901  30.2998747  96.5547821  63.9030423  30.8420427  96.6486046
  65.3855646  30.8172727  96.9542062  67.9959551  16.1093376  99.1982027
  68.4928251  15.3563339  98.8783097  67.2246533  16.1457693  98.6325236
  75.8489309  21.8133742 100.8400318  75.8379185  22.6958457 100.4694251
  74.9806688  21.4605293 100.6454855  67.3571805  30.9613811 105.2003158
  68.0699777  31.5961276 105.1279060  66.8661834  31.0577677 104.3843160
  69.0789332  24.8665064  96.7720450  68.1445611  24.9866526  96.6025154
  69.2566000  23.9637530  96.5080460  64.5794520  18.2510759  98.9253711
  64.2092308  17.6981800  99.6134617  65.0753612  17.6468893  98.3728711
  72.4661883  20.7082383  97.3070484  72.9322336  21.5410375  97.2330787
  72.9169384  20.2427365  98.0115743  62.4083719  28.7108254 106.0208729
  63.1093178  29.3444737 106.1738123  61.9378834  29.0522986 105.2604368
  70.5338114  27.0526204  94.3056636  70.8097958  26.9382799  95.2150510
  69.6642613  26.6543689  94.2668809  70.4378546  13.0762970 101.3461386
  69.5241626  13.3067197 101.5143592  70.8671648  13.1601414 102.1975418
  70.2085005  21.2652862 103.8461280  69.5556455  21.5128769 103.1913732
  70.5865384  20.4517000 103.5123757  67.1692178  31.3012555  97.9489450
  67.3514573  30.4834211  98.4117202  67.9925164  31.5180247  97.5114340
  67.5034344  30.2280740  95.2104498  68.0322110  29.7173195  94.5974660
  67.7662564  29.9123270  96.0750031  66.2572578  22.0072673 110.3327317
  65.5813215  21.9066802 111.0029692  67.0800211  21.8511887 110.7963314
  58.0051437  28.2444610 102.9539832  58.5904873  27.4988297 103.0867736
  57.8076275  28.5548566 103.8376496  60.8590092  31.2795857  97.9702274
  60.1900467  31.7641985  97.4866314  60.7202962  31.5265077  98.8845653
  52.5969091  20.8150210 101.6744275  52.6353191  20.2813800 102.4681393
  52.0909384  20.2885415 101.0555252  64.9995360  33.3139600 104.5684933
  65.5513668  33.4771222 105.3334018  65.3401554  33.9044038 103.8964957
  59.9759854  15.6614750 105.1706817  60.0401180  16.5229581 104.7584215
  59.9126974  15.0488752 104.4379176  69.8506235  28.1400858 110.4233587
  70.3946139  28.7530816 109.9288542  69.2693080  28.6980436 110.9400600
  56.2277669  19.5414312  94.7498206  56.5231110  18.6324990  94.6965260
  55.3265705  19.5202051  94.4279209  68.1363748  31.2621576 101.5548615
  68.0114887  30.4611316 101.0459560  68.7942839  31.7567769 101.0662585
  59.7571916  17.6170308 100.7325755  59.0358502  18.2306276 100.5933228
  60.5465172  18.1528073 100.6542401  70.1998656  29.0630596 103.1828165
  69.2528992  28.9435947 103.1106492  70.5481429  28.1753094 103.2654426
  62.5598229  14.9524735 107.0066407  63.0832631  15.1987032 107.7692716
  62.3410563  15.7844770 106.5869544  57.9565511  17.2228410  94.8737532
  57.6278217  16.3425788  94.6912637  58.3104881  17.1676078  95.7613921
  67.2045089  28.8583312  99.3832517  67.0570052  27.9300020  99.5640087
  68.0298583  28.8803403  98.8989592  61.0707334  17.5101379  95.2413009
  61.4103406  18.0387301  94.5191618  61.5179454  17.8481785  96.0171576
  70.8079211  29.6811871 100.4697390  71.7325759  29.4754732 100.3321841
  70.6394515  29.4328272 101.3786731  63.7650775  15.8938430 104.6916077
  63.4247595  15.0946243 105.0936757  63.0589781  16.1940141 104.1192910
  64.4167246  12.9787742 103.1443400  65.2393316  12.5048221 103.0222291
  64.6605310  13.7578226 103.6442087  63.0575481  16.0076001  93.4406302
  63.7783843  16.3857254  92.9370019  62.4340785  16.7264878  93.5441280
  67.2006604  16.7121150  94.3764634  67.4170218  17.5945788  94.0753462
  66.7200671  16.3207363  93.6470276  61.9405825  19.6706863 100.9535379
  61.7950406  19.9847166 101.8459660  61.4631029  20.2891763 100.4006278
  63.8002208  16.6609411 101.0016268  63.7863777  15.7650504 100.6648566
  64.5174636  16.6680075 101.6354555  65.6528339  17.0946751 103.0469396
  65.3946117  18.0163822 103.0453726  65.1213379  16.6977186 103.7369860
  70.5974527  30.1997538  95.8259481  70.7711405  29.6343961  95.0733334
  71.0903419  30.9998433  95.6438971  56.4151487  22.2112208 103.8923040
  55.8704955  22.9872016 104.0243314  57.2930837  22.5583012 103.7342162
  63.2039104  15.5423791  96.2703839  63.3255015  14.6140438  96.4694726
  62.9141146  15.5562477  95.3582154  66.0730294  13.2278702  99.4070558
  66.0951991  13.2918035  98.4522538  66.4898353  12.3883210  99.6011065
  76.4513919  22.9633961  97.4449781  76.8945065  22.2141287  97.0468904
  75.5740429  22.9544098  97.0623513  71.5849700  29.5164303  92.9256380
  72.2800605  30.1370996  93.1443694  71.9272850  28.6659654  93.2008757
  57.2017509  21.3382104 106.7853197  56.4599245  21.4864739 107.3717827
  56.8810253  21.5990369 105.9219946  73.4841123  26.9664008  94.4543710
  74.0092447  27.3051281  93.7293030  73.3963476  26.0311024  94.2706845
  65.1461172  30.8798082 106.5833587  65.4548298  30.6347229 107.4556287
  65.9436654  31.0844721 106.0952457  65.1681784  33.0335992  98.8138964
  64.7286774  32.5412370  99.5071820  65.9189901  32.4908959  98.5731039
  57.6474123  29.2247533  98.8163592  58.4732143  28.9251304  98.4362235
  57.2968175  28.4555155  99.2653380  62.6155656  28.5774001 100.8861265
  61.9935665  27.9144706 100.5863493  63.2860523  28.6035133 100.2034913
  55.8482728  27.1433859  99.7752525  55.0114636  26.7156033  99.5936526
  55.8206373  27.3366302 100.7123316  73.1735029  27.5996912 109.7594908
  72.3830573  27.5821051 109.2199408  72.9368384  28.1385206 110.5143945
  73.2932904  24.4489378 107.0727637  73.3430909  24.2839386 108.0143160
  73.1846828  23.5816637 106.6825518  62.1769163  27.1277924  94.3619726
  62.3257283  27.8113388  93.7086398  62.9835606  27.1083014  94.8769181
  70.5836667  20.4320306 108.3886944  71.4846529  20.2926771 108.0970941
  70.6584641  20.5974761 109.3285121  64.9179472  17.8087161 107.2340130
  64.0482781  18.1020727 106.9622718  65.1538952  18.3927606 107.9547394
  74.7951101  26.8686320 107.3169658  74.5035909  27.2316300 108.1533119
  74.1823232  26.1553328 107.1382990  75.9946783  24.4339200  99.8372229
  76.8293675  24.8729004 100.0009789  76.1305912  23.9577853  99.0180474
  73.0438289  21.9918935 105.7849716  73.5192411  22.1846581 104.9768568
  72.1203855  22.0478120 105.5393100  59.9321796  23.1543102  95.3680795
  59.6867838  22.2505432  95.5661005  60.1017710  23.1560252  94.4260273
  67.6218506  14.0266778 104.7505550  68.1400450  14.7627805 104.4252039
  67.2673639  14.3330771 105.5852309  59.2017443  18.8871459  92.8666956
  58.5086688  18.9615814  92.2106992  58.9569195  18.1231803  93.3888473
  67.8731100  10.4467061 100.2706447  68.1532854   9.7790250 100.8966873
  68.6581707  10.6396156  99.7581111  65.6764568  29.6226055  91.8331473
  65.1038535  30.2416242  91.3801945  66.2497362  30.1725416  92.3671395
  71.7439958  18.8684695 104.0178022  72.6957381  18.9682792 104.0390246
  71.5743409  18.0762963 104.5276106  69.7654338  15.9540278 104.2037423
  69.1704270  16.2345291 103.5083912  69.4804034  16.4434179 104.9754164
  68.8961828  29.9063205  92.9640055  69.8292501  29.8408766  93.1672931
  68.8085041  30.7419472  92.5054588  71.5249845  29.2229075  89.9244003
  71.4463476  28.8888939  90.8179761  72.3459512  29.7150843  89.9235475
  74.2228036  22.0890814 103.1320322  74.1904356  21.1506815 103.3180005
  74.8328660  22.1674851 102.3986146  66.0611367  20.9586867  89.1747526
  67.0070472  20.8293075  89.2435944  65.6825612  20.2201529  89.6516954
  74.3722525  18.8801858 103.1778605  73.8561573  18.0960314 102.9908534
  75.2562473  18.5520574 103.3425124  72.0333251  12.6242873  99.1374417
  71.8358073  12.3157962 100.0217749  72.6432957  13.3504512  99.2672347
  80.0404586  23.1506821 102.2726358  80.7707974  22.8892109 102.8334062
  79.4311531  22.4135543 102.3128426  78.1219883  21.2914684 102.8700810
  77.3953047  21.1570649 102.2617301  77.7067170  21.5991512 103.6757528
  65.9450059  25.0104613 110.6348183  66.8653069  25.1883212 110.8288229
  65.9099642  24.0660659 110.4827882  64.2454284  18.8836844  89.1102411
  63.3385739  18.5869956  89.1865124  64.5230265  18.5866662  88.2436697
  55.1632224  20.2043207  99.5601457  54.8435009  19.3508515  99.2675831
  54.6165653  20.4191785 100.3159425  58.9412132  22.9205648 103.2770964
  59.1598142  23.8522756 103.2958998  59.3537906  22.5613622 104.0625768
  65.8616350  13.4273733  95.2646652  65.0517078  13.0820818  95.6401898
  66.5500767  13.1181277  95.8534264  67.7906898  12.5051780  96.8870949
  68.3437937  12.9247234  97.5460972  68.0276984  11.5787528  96.9293905
  63.0153069  15.7423779  89.2514390  63.8772233  16.0678677  89.5110207
  63.2003413  14.9555275  88.7387456  55.0320484  23.8246119 101.5294579
  54.3383956  23.4100071 101.0164533  55.7793475  23.8666655 100.9327998
  71.1685705  14.6152305  96.3949613  70.5884374  15.2737109  96.0127665
  70.9021638  13.7929650  95.9837031  69.6189272  14.0157363  98.5970933
  70.1189050  14.1273898  97.7885252  70.2624879  13.7118416  99.2371742
  63.6771267  21.9235993 111.4838774  63.1938349  22.7236353 111.6902663
  63.7632206  21.9343938 110.5306218  56.9457227  23.7564372  99.4060594
  56.9227915  23.8552060  98.4542477  57.2557863  24.6029523  99.7277760
  59.6044605  25.8140527 103.5207208  60.5587858  25.7824470 103.4537140
  59.4057128  25.3531151 104.3357434  60.1943987  24.3841643 106.0878006
  61.0136876  24.8785722 106.1112843  60.4680795  23.4673612 106.0595573
  69.9510583  16.7752396  95.4505961  69.0636438  17.0602046  95.2326156
  70.3664572  16.6146159  94.6033238  73.3025119  16.7998917  99.1660301
  74.0785509  17.2895369  99.4384917  72.5773253  17.2256971  99.6232170
  75.7397678  17.5126536 100.2234241  76.3342169  17.2722272  99.5127549
  75.8124262  16.7933667 100.8507777  57.9594834  31.3560147 100.5377406
  57.8249302  30.5960548  99.9715404  57.5426896  32.0801047 100.0706195
  69.0953797  26.5397070  89.5453981  69.7989647  26.7447073  90.1611637
  68.3716445  27.1073832  89.8103065  69.9251607  22.2906932  95.6656251
  69.8686808  22.7475483  94.8263884  70.4779949  21.5297616  95.4879094
  73.7356413  18.0796664  96.4906371  73.4793347  17.6793299  97.3214579
  73.1109281  18.7940457  96.3656510  78.0468751  20.8192737  98.9977662
  77.4868309  20.8885926  99.7709224  77.4412254  20.6433721  98.2777159
  61.1163960  32.2529464 100.7495849  60.9996344  33.1974896 100.6474539
  60.2956406  31.9503025 101.1381648  71.0040494  26.9779600  91.5952441
  71.8386098  26.5460798  91.4129916  70.8424837  26.8061613  92.5229336
  70.6586386  23.4811713  92.9608781  70.6035190  23.3155984  92.0197225
  70.0332442  24.1887746  93.1170970  55.4478901  18.7179777 106.7870203
  56.0937765  18.2078731 107.2757428  55.2396052  19.4548459 107.3613628
  67.9732293  25.7860625 112.2862343  68.8423453  25.9601277 111.9248978
  67.4939045  26.6055042 112.1638073  63.9682512  12.9819822  92.5394099
  63.9561182  13.9261662  92.6962370  64.8605934  12.7989967  92.2453560
  62.1418474  32.9057726 103.9651777  63.0445720  32.9381336 104.2818272
  61.9155844  31.9758177 103.9798113  63.8972076  31.6588712 100.6261856
  62.9467707  31.6590574 100.5126228  64.2004562  30.9121447 100.1097890
  67.7834631   9.5762599  96.7940036  67.0167027   9.0221085  96.9396718
  68.1945336   9.6484467  97.6554187  79.6324769  37.4949251 101.6907618
  80.2703179  37.3755998 100.9870958  79.5145612  38.4430095 101.7495570
  76.4414475  37.4476679 101.6269143  76.1032987  37.3317744 100.7389678
  77.3104244  37.0467844 101.6070149  72.3001291  39.3012155  97.6166034
  71.7366156  39.2102092  96.8482322  72.1853686  38.4812060  98.0968526
  76.9234258  38.6011531 107.5855348  76.9122899  38.2064329 106.7135852
  77.0854898  37.8677603 108.1789120  69.8465723  40.7963347 100.4550254
  70.6387015  40.4554171 100.0396554  70.0862373  40.9058322 101.3752408
  77.8800850  42.9683123  92.9280499  77.2288830  43.5537203  92.5414512
  78.6745213  43.4989318  92.9875536  71.8056477  40.0572260  93.3267633
  72.5787353  39.5101247  93.1880509  72.1581876  40.9216509  93.5382094
  73.6441520  41.3848642 106.5334532  73.3531386  42.2894273 106.4181199
  74.2798504  41.4265170 107.2478602  74.5697726  38.7625491 103.1235892
  75.1661299  38.5381513 102.4092855  74.6272698  38.0210236 103.7261340
  74.1422755  36.2164926  90.9586083  74.3948275  35.6946447  90.1969546
  73.2047314  36.0531072  91.0612767  79.1866038  35.2200705  98.7660826
  79.9729127  34.8020128  98.4151243  79.4504742  36.1246797  98.9342475
  79.3576115  40.6573555  93.4649483  78.7221948  40.7308181  94.1770388
  79.0273521  41.2467154  92.7868562  84.5874465  35.1575938  99.6693805
  85.3199637  34.5875155  99.9031634  83.8313820  34.7697538 100.1100310
  73.8619044  38.1193032  93.1610458  73.7455302  37.4437936  93.8291542
  73.9721303  37.6325406  92.3442611  76.2050584  37.5803179  96.8657147
  75.8408792  37.0533800  97.5770069  77.0617700  37.1901648  96.6923633
  82.1099885  28.8697512 104.1288413  81.7783210  29.7392923 103.9049628
  81.5145498  28.5533796 104.8082444  75.8456071  32.6093079  91.8618496
  76.0130474  33.4773315  92.2288967  75.6553241  32.7720361  90.9379785
  78.6031405  41.0710058 103.5284326  78.3032128  41.9735097 103.4200133
  78.2582464  40.8042241 104.3805479  72.0543886  37.5223855  99.5621030
  71.1294383  37.3900069  99.7698722  72.3028299  38.3018074 100.0590973
  82.0028548  33.5892598 101.2081763  81.0945426  33.5208006 100.9140524
  81.9516144  34.0664543 102.0363589  75.8245292  35.0650736  92.8465162
  75.7044918  35.5107787  93.6850643  75.1297881  35.4136054  92.2878701
  69.4152697  37.1657128 100.3964820  69.5445078  37.4191607 101.3104231
  68.7350148  37.7584836 100.0769475  73.5852184  47.8354378  96.4955294
  73.5076214  48.7862203  96.5743774  72.9813828  47.4900251  97.1530220
  76.0769414  35.0082244 109.1516661  75.3002748  35.5676164 109.1419525
  76.7159977  35.4939027 109.6731531  83.8690195  31.7909036 102.9859637
  83.2264575  32.0841570 102.3399432  83.3645123  31.6761957 103.7912834
  81.5230358  35.5372210  93.6745497  82.4348215  35.7699596  93.4993194
  81.0140006  36.1209254  93.1120575  74.3315787  37.8167697 108.7134628
  75.0730471  38.3552741 108.4369451  73.6252772  38.4433986 108.8706179
  79.8071126  39.9596837 107.3106789  80.2154482  39.5179248 106.5661421
  79.0848388  39.3849465 107.5640982  76.1602196  34.8969444 104.6840346
  77.0063391  35.3208858 104.8274995  76.1000834  34.2403069 105.3778909
  80.1299941  40.5198028 101.0659078  79.5008803  40.6843742 100.3635146
  79.7425603  40.9339638 101.8370042  84.0089173  41.4552466  98.4203442
  83.3240211  41.8351367  97.8700475  84.0933022  42.0647793  99.1535390
  79.3101642  32.5573813 106.3421520  79.0662573  33.3115873 105.8055795
  79.5861572  32.9359160 107.1768767  81.2640104  39.1012425 105.0198785
  81.4757000  39.7444185 104.3433166  81.2169853  38.2674742 104.5520715
  78.8666333  31.7130246 101.9235357  78.0050812  32.0111499 102.2152095
  78.8928768  31.9300645 100.9916390  75.6827903  40.2572436  98.3309163
  76.1466248  40.5360139  97.5413786  75.4184701  39.3555881  98.1482254
  72.5751984  39.8043918 101.2688926  73.1453341  40.2331186 100.6306411
  73.1660096  39.5226502 101.9673112  74.6196789  36.3795589  95.1398728
  75.3220832  36.8316632  95.6072655  74.2877417  35.7379407  95.7678621
  73.0677150  34.9707345 109.5149938  72.4375811  35.6523626 109.7485334
  72.9613238  34.8590427 108.5703076  68.3622123  34.6379141 100.4415862
  67.5721177  34.8936670  99.9655972  68.8533370  35.4527479 100.5467902
  82.3785932  41.9784380 103.1921143  83.2003376  41.5764568 102.9103824
  82.3748335  41.8752615 104.1437258  70.3136868  35.0023720  97.3999338
  69.5168031  35.1142415  97.9182834  70.0862460  35.3410373  96.5340229
  76.1442536  41.5268424 105.3481853  76.2086968  41.9888831 106.1840025
  75.4353460  40.8965789 105.4764163  66.6459826  34.8909632 102.8730853
  66.8967864  35.7756642 103.1388429  67.1819374  34.7114233 102.1005944
  90.4691925  38.3223129  99.5406114  89.7155634  37.7530527  99.3850119
  90.6039467  38.2885793 100.4876749  75.8590553  43.1936531  95.2160833
  75.7236228  44.0388067  95.6445681  76.4000366  43.3955809  94.4526767
  72.3457893  29.2728111 111.8775189  71.9524839  28.7194310 112.5522833
  73.1624033  29.5838690 112.2681706  69.3119951  40.7111969  95.7888759
  69.8244471  41.5055219  95.9394323  69.9642664  40.0138260  95.7222360
  71.1214835  43.8277726  97.8711512  71.2981464  44.7495690  97.6832496
  71.9171669  43.5136145  98.3005891  75.2625854  30.6885990 109.4695445
  76.0035567  31.2893143 109.3899908  75.4943777  29.9463628 108.9113488
  70.4067192  35.8742357 107.7473675  70.2920707  34.9727615 108.0480774
  69.5511710  36.1206054 107.3958491  77.4859030  43.8160098 109.3461176
  77.0422884  43.0296476 109.0282080  78.1476243  44.0039248 108.6805066
  72.2446151  45.3455899 103.8721854  72.7953576  45.2172963 103.0998848
  71.4057627  45.6450788 103.5216747  79.5840268  44.0962898 107.3742577
  79.5658743  44.9171779 106.8822846  80.5060188  43.9716973 107.5992718
  76.0413322  41.6107027 108.2166085  76.5741659  40.8495315 107.9865393
  75.5127403  41.3180679 108.9590240  79.2083017  26.7167093 103.7459727
  78.8647286  27.6068735 103.6698837  79.5761980  26.5268751 102.8829312
  67.2768868  39.0400624  96.5648329  68.1144090  39.4497632  96.3482037
  67.4547135  38.1000066  96.5348523  79.1733300  36.7075704  92.2532162
  78.6579923  37.4780309  92.4920549  78.9010608  36.0340840  92.8765223
  76.7580411  31.5525405  97.3117400  75.9022007  31.1632255  97.1323039
  77.1707362  31.6317366  96.4517186  78.2879557  29.0871748 101.7108960
  77.7844353  29.0501883 100.8976765  78.5810164  29.9964491 101.7705617
  74.5322443  29.1710478 100.7175142  75.3975440  28.9753287 100.3581031
  74.5999952  28.9420830 101.6444499  84.1467574  39.4608059  94.1885336
  83.3697017  39.1219218  93.7440498  84.8259055  39.4660682  93.5140301
  78.9619603  34.5802796  94.0791943  78.6569738  34.8948945  94.9302086
  79.9150045  34.6584216  94.1219276  77.4066035  40.7393020  95.7284897
  76.8787396  40.0045779  95.4158135  76.9053537  41.5167696  95.4824866
  82.3858881  38.9342040 100.8451943  81.7282555  39.6241301 100.9332072
  83.1899280  39.3238472 101.1885930  72.1384762  31.4012686  98.0891509
  72.7128514  31.1787867  97.3564702  72.7255745  31.4701380  98.8420110
  81.1964339  37.2886413  98.8955885  81.7096221  37.9216405  99.3977595
  81.8465563  36.6887608  98.5299245  72.4654349  33.4317147  92.1087394
  71.6291662  33.7691833  92.4296669  72.3259119  33.2966127  91.1714531
  74.4407430  28.2753935  96.8166578  73.7871842  27.9602952  96.1923193
  74.3987904  27.6529675  97.5426401  75.5518635  38.5573230  88.7319870
  74.6445697  38.3262483  88.9311019  76.0489667  37.7610849  88.9193852
  78.4586714  47.2670737  91.6516556  77.7848412  47.5702434  92.2601514
  78.8452536  48.0699817  91.3022013  77.6745170  34.7635868 101.1414226
  76.7567732  34.9850815 100.9835914  78.0905314  34.8382179 100.2825933
  78.4580218  36.1627284  96.2716906  79.2052037  36.6748681  95.9624028
  78.7271808  35.8411337  97.1321300  76.7306868  38.6585825  93.2543860
  75.8218088  38.3744858  93.3516330  76.7601952  39.0784903  92.3947167
  81.9626136  42.2692414  97.0235028  81.5088463  41.4283324  97.0800218
  81.3320102  42.9053813  97.3609808  80.9059055  33.1984400  98.2535695
  80.1681812  32.6861786  98.5845938  81.1585829  32.7584782  97.4418972
  80.4059075  44.1068911  97.9584846  80.6982049  44.6673968  97.2397212
  80.9157696  44.3997472  98.7138005  81.0070683  25.9760652  98.8477465
  81.3129559  25.1158016  98.5603380  81.7323287  26.5678272  98.6476458
  67.2995039  36.3791339  97.2359063  67.1019438  35.7860700  96.5110129
  66.7441703  36.0743549  97.9535001  75.2791762  36.2714445  99.3553656
  75.3340372  35.3188282  99.2796132  74.4682964  36.4273884  99.8394954
  76.4282956  40.1994568  90.5931939  75.9902386  39.4830427  90.1337576
  77.1693397  40.4270683  90.0317030  73.2184122  34.8891505  97.1144035
  72.4051988  35.1885676  97.5209227  73.7143116  34.4947194  97.8318517
  75.3692700  44.8849262  99.0478299  75.3268879  45.1110108  98.1186831
  76.2855399  44.6512637  99.1964100  78.8158334  35.3533330 105.9458928
  79.1707722  35.5804803 106.8053394  79.4630465  35.6851706 105.3236184
  84.5456071  38.4751765  96.6508257  84.4073969  38.6653361  95.7229447
  84.1892290  39.2371148  97.1076309  72.7098197  32.4609861 102.7305269
  73.3497576  32.3198620 102.0328233  71.8775728  32.1744374 102.3543871
  84.5725450  40.5428292 101.6619529  85.0061957  40.4503582 102.5102583
  85.2857031  40.5185793 101.0239545  73.4858501  41.7612291  98.8440262
  74.2799099  41.2662611  98.6422837  72.7750193  41.2330154  98.4807968
  78.3053345  44.1430387 103.1952630  78.3590368  44.7121323 103.9630345
  77.4368127  44.3132272 102.8306667  69.7941264  35.9055373  94.9200015
  68.8638852  35.8439828  95.1369977  69.8898736  35.3831326  94.1236656
  69.7126813  32.4310186  97.5078256  69.9733631  33.3455519  97.3987417
  70.5343986  31.9634628  97.6574869  71.1851739  33.8447943 104.6777081
  71.8574792  33.6365305 104.0289730  70.3581525  33.6470029 104.2382313
  85.4341000  40.5851993 104.1952414  85.6276890  41.4897804 104.4411689
  85.3341618  40.1259412 105.0290999  77.0877311  30.4709884 106.6942742
  76.4405226  31.1699833 106.6007218  77.8578326  30.9046028 107.0618990
  80.4956109  40.7358736 109.7693295  80.3441615  40.5069288 108.8523379
  80.4860788  41.6929337 109.7824640  77.2641445  38.3090649 104.7539561
  78.1933505  38.4601808 104.5808529  76.8432475  38.3974669 103.8988208
  76.0629777  42.3341313 102.5238099  75.9240863  41.9660097 103.3964037
  75.2744373  42.8488952 102.3522057  76.6577929  47.4350409  93.8663636
  76.8329685  46.9638453  94.6809258  75.9710717  48.0616176  94.0944896
  77.6134992  41.7122916  99.9126937  77.2784825  41.6723686 100.8084587
  77.1138938  41.0467632  99.4397347  71.5879236  37.1190546 105.4379518
  71.4499034  36.3870785 106.0391057  72.4984159  37.0299446 105.1563706
  80.5494184  39.0578950  90.1863996  79.9323354  38.3325778  90.0897049
  80.0810672  39.8188310  89.8431071  74.2161537  36.8310505 104.9263198
  74.9261155  36.1903697 104.8849816  74.1730845  37.0823400 105.8489378
  82.2048315  43.7677858 107.8469777  82.1460862  43.0837079 107.1800360
  82.6067834  44.5096848 107.3950403  72.9290471  33.8175723 106.7458837
  72.3927828  33.3666461 107.3980433  72.3407179  33.9521632 106.0029301
  71.2239014  50.5839772 100.6403496  71.4635612  51.2158296 101.3182514
  70.3808211  50.2327812 100.9268855  72.3392730  33.2764374  89.3085301
  71.4622196  33.1553175  88.9447547  72.8150483  32.4850453  89.0564189
  82.2065723  41.7317442 106.0783757  81.3192501  41.3943364 106.2010155
  82.7764274  41.0000474 106.3152522  63.8594870  38.0641534  99.4026808
  64.5465910  37.7503264  98.8147823  63.7042998  38.9682899  99.1294059
  68.6629592  32.9531731 103.8311832  68.5787781  32.3457400 103.0962242
  67.8412298  33.4440749 103.8321328  75.7366876  46.3918895 103.0445000
  75.6637047  47.1973866 103.5564304  75.2944269  46.5910860 102.2193021
  75.5256656  45.6290665  96.5547821  74.7424178  46.1712345  96.6486046
  76.2249401  46.1464644  96.9542062  78.8353306  31.4385294  99.1982027
  79.3322005  30.6855256  98.8783097  78.0640287  31.4749611  98.6325236
  86.6883063  37.1425660 100.8400318  86.6772939  38.0250375 100.4694251
  85.8200443  36.7897211 100.6454855  78.1965560  46.2905729 105.2003158
  78.9093532  46.9253194 105.1279060  77.7055588  46.3869595 104.3843160
  79.9183086  40.1956981  96.7720450  78.9839365  40.3158444  96.6025154
  80.0959755  39.2929448  96.5080460  75.4188275  33.5802677  98.9253711
  75.0486062  33.0273718  99.6134617  75.9147367  32.9760811  98.3728711
  83.3055638  36.0374301  97.3070484  83.7716090  36.8702292  97.2330787
  83.7563138  35.5719282  98.0115743  73.2477473  44.0400172 106.0208729
  73.9486933  44.6736655 106.1738123  72.7772588  44.3814904 105.2604368
  81.3731869  42.3818122  94.3056636  81.6491713  42.2674717  95.2150510
  80.5036368  41.9835607  94.2668809  81.2772301  28.4054888 101.3461386
  80.3635380  28.6359114 101.5143592  81.7065402  28.4893332 102.1975418
  81.0478759  36.5944780 103.8461280  80.3950209  36.8420687 103.1913732
  81.4259139  35.7808918 103.5123757  78.0085933  46.6304473  97.9489450
  78.1908327  45.8126129  98.4117202  78.8318919  46.8472165  97.5114340
  78.3428098  45.5572658  95.2104498  78.8715865  45.0465113  94.5974660
  78.6056318  45.2415188  96.0750031  77.0966332  37.3364591 110.3327317
  76.4206969  37.2358720 111.0029692  77.9193966  37.1803804 110.7963314
  68.8445191  43.5736527 102.9539832  69.4298628  42.8280215 103.0867736
  68.6470030  43.8840484 103.8376496  71.6983846  46.6087775  97.9702274
  71.0294222  47.0933902  97.4866314  71.5596716  46.8556995  98.8845653
  63.4362846  36.1442127 101.6744275  63.4746945  35.6105718 102.4681393
  62.9303139  35.6177333 101.0555252  75.8389115  48.6431518 104.5684933
  76.3907423  48.8063140 105.3334018  76.1795308  49.2335956 103.8964957
  70.8153608  30.9906668 105.1706817  70.8794935  31.8521499 104.7584215
  70.7520728  30.3780670 104.4379176  70.2905881  33.0629800 108.8179852
  70.9177920  32.6806878 109.4317376  69.4333800  32.8444002 109.1835544
  80.6899989  43.4692776 110.4233587  81.2339893  44.0822734 109.9288542
  80.1086834  44.0272354 110.9400600  67.0671423  34.8706230  94.7498206
  67.3624865  33.9616908  94.6965260  66.1659459  34.8493969  94.4279209
  78.9757502  46.5913494 101.5548615  78.8508642  45.7903233 101.0459560
  79.6336593  47.0859687 101.0662585  70.5965670  32.9462226 100.7325755
  69.8752256  33.5598194 100.5933228  71.3858926  33.4819991 100.6542401
  81.0392411  44.3922514 103.1828165  80.0922746  44.2727865 103.1106492
  81.3875184  43.5045012 103.2654426  73.3991984  30.2816653 107.0066407
  73.9226386  30.5278949 107.7692716  73.1804317  31.1136687 106.5869544
  68.7959265  32.5520327  94.8737532  68.4671971  31.6717706  94.6912637
  69.1498636  32.4967996  95.7613921  78.0438844  44.1875230  99.3832517
  77.8963806  43.2591937  99.5640087  78.8692337  44.2095321  98.8989592
  71.9101088  32.8393297  95.2413009  72.2497161  33.3679218  94.5191618
  72.3573209  33.1773703  96.0171576  81.6472966  45.0103789 100.4697390
  82.5719513  44.8046650 100.3321841  81.4788269  44.7620190 101.3786731
  74.6044529  31.2230348 104.6916077  74.2641349  30.4238161 105.0936757
  73.8983535  31.5232059 104.1192910  75.2561001  28.3079660 103.1443400
  76.0787070  27.8340138 103.0222291  75.4999064  29.0870144 103.6442087
  73.8969235  31.3367919  93.4406302  74.6177598  31.7149171  92.9370019
  73.2734539  32.0556795  93.5441280  78.0400358  32.0413068  94.3764634
  78.2563973  32.9237705  94.0753462  77.5594425  31.6499281  93.6470276
  72.7799580  34.9998781 100.9535379  72.6344160  35.3139084 101.8459660
  72.3024783  35.6183681 100.4006278  74.6395962  31.9901329 101.0016268
  74.6257531  31.0942422 100.6648566  75.3568391  31.9971993 101.6354555
  76.4922093  32.4238669 103.0469396  76.2339871  33.3455740 103.0453726
  75.9607134  32.0269104 103.7369860  81.4368282  45.5289456  95.8259481
  81.6105159  44.9635879  95.0733334  81.9297173  46.3290351  95.6438971
  67.2545242  37.5404125 103.8923040  66.7098710  38.3163933 104.0243314
  68.1324592  37.8874930 103.7342162  74.0432858  30.8715709  96.2703839
  74.1648770  29.9432355  96.4694726  73.7534901  30.8854395  95.3582154
  76.9124049  28.5570620  99.4070558  76.9345746  28.6209953  98.4522538
  77.3292108  27.7175128  99.6011065  87.2907673  38.2925879  97.4449781
  87.7338819  37.5433204  97.0468904  86.4134183  38.2836015  97.0623513
  82.4243454  44.8456221  92.9256380  83.1194359  45.4662913  93.1443694
  82.7666605  43.9951572  93.2008757  68.0411264  36.6674021 106.7853197
  67.2993000  36.8156657 107.3717827  67.7204008  36.9282287 105.9219946
  84.3234878  42.2955926  94.4543710  84.8486202  42.6343199  93.7293030
  84.2357230  41.3602941  94.2706845  75.9854926  46.2090000 106.5833587
  76.2942053  45.9639146 107.4556287  76.7830408  46.4136638 106.0952457
  76.0075538  48.3627909  98.8138964  75.5680529  47.8704288  99.5071820
  76.7583655  47.8200877  98.5731039  68.4867877  44.5539450  98.8163592
  69.3125897  44.2543222  98.4362235  68.1361929  43.7847073  99.2653380
  73.4549410  43.9065918 100.8861265  72.8329420  43.2436623 100.5863493
  74.1254277  43.9327050 100.2034913  66.6876482  42.4725777  99.7752525
  65.8508391  42.0447951  99.5936526  66.6600128  42.6658220 100.7123316
  73.5273938  32.3847706 110.4793771  73.5762093  33.2609829 110.0971541
  74.0696452  31.8425100 109.9065414  84.0128784  42.9288830 109.7594908
  83.2224327  42.9112969 109.2199408  83.7762138  43.4677123 110.5143945
  84.1326659  39.7781296 107.0727637  84.1824664  39.6131304 108.0143160
  84.0240582  38.9108555 106.6825518  73.0162917  42.4569842  94.3619726
  73.1651038  43.1405306  93.7086398  73.8229361  42.4374932  94.8769181
  81.4230421  35.7612224 108.3886944  82.3240284  35.6218689 108.0970941
  81.4978396  35.9266679 109.3285121  75.7573226  33.1379079 107.2340130
  74.8876536  33.4312645 106.9622718  75.9932707  33.7219524 107.9547394
  85.6344856  42.1978238 107.3169658  85.3429664  42.5608218 108.1533119
  85.0216987  41.4845246 107.1382990  86.8340538  39.7631117  99.8372229
  87.6687429  40.2020921 100.0009789  86.9699667  39.2869771  99.0180474
  83.8832044  37.3210852 105.7849716  84.3586165  37.5138499 104.9768568
  82.9597609  37.3770038 105.5393100  70.7715550  38.4835019  95.3680795
  70.5261592  37.5797349  95.5661005  70.9411465  38.4852170  94.4260273
  78.4612260  29.3558696 104.7505550  78.9794204  30.0919723 104.4252039
  78.1067393  29.6622689 105.5852309  70.0411198  34.2163377  92.8666956
  69.3480443  34.2907732  92.2106992  69.7962950  33.4523721  93.3888473
  78.7124854  25.7758978 100.2706447  78.9926608  25.1082167 100.8966873
  79.4975461  25.9688074  99.7581111  76.5158323  44.9517972  91.8331473
  75.9432290  45.5708159  91.3801945  77.0891117  45.5017334  92.3671395
  82.5833713  34.1976612 104.0178022  83.5351136  34.2974710 104.0390246
  82.4137163  33.4054881 104.5276106  80.6048092  31.2832196 104.2037423
  80.0098024  31.5637208 103.5083912  80.3197789  31.7726096 104.9754164
  79.7355583  45.2355122  92.9640055  80.6686256  45.1700684  93.1672931
  79.6478796  46.0711389  92.5054588  82.3643599  44.5520993  89.9244003
  82.2857231  44.2180856  90.8179761  83.1853266  45.0442761  89.9235475
  85.0621791  37.4182732 103.1320322  85.0298111  36.4798733 103.3180005
  85.6722414  37.4966769 102.3986146  76.9005121  36.2878785  89.1747526
  77.8464226  36.1584993  89.2435944  76.5219366  35.5493447  89.6516954
  85.2116279  34.2093775 103.1778605  84.6955328  33.4252232 102.9908534
  86.0956228  33.8812492 103.3425124  82.8727006  27.9534791  99.1374417
  82.6751827  27.6449879 100.0217749  83.4826712  28.6796430  99.2672347
  90.8798340  38.4798739 102.2726358  91.6101729  38.2184027 102.8334062
  90.2705286  37.7427461 102.3128426  88.9613638  36.6206601 102.8700810
  88.2346801  36.4862566 102.2617301  88.5460924  36.9283430 103.6757528
  76.7843814  40.3396531 110.6348183  77.7046823  40.5175130 110.8288229
  76.7493397  39.3952576 110.4827882  75.0848039  34.2128761  89.1102411
  74.1779494  33.9161874  89.1865124  75.3624020  33.9158579  88.2436697
  66.0025979  35.5335125  99.5601457  65.6828763  34.6800433  99.2675831
  65.4559407  35.7483703 100.3159425  69.7805886  38.2497566 103.2770964
  69.9991896  39.1814674 103.2958998  70.1931660  37.8905540 104.0625768
  76.7010104  28.7565651  95.2646652  75.8910833  28.4112736  95.6401898
  77.3894521  28.4473195  95.8534264  78.6300653  27.8343698  96.8870949
  79.1831691  28.2539151  97.5460972  78.8670739  26.9079446  96.9293905
  74.6533752  33.8230772 112.6673713  74.5530479  34.7725128 112.5985804
  74.4355294  33.4949010 111.7949783  73.8546823  31.0715697  89.2514390
  74.7165987  31.3970595  89.5110207  74.0397167  30.2847192  88.7387456
  65.8714239  39.1538036 101.5294579  65.1777710  38.7391989 101.0164533
  66.6187230  39.1958573 100.9327998  82.0079460  29.9444223  96.3949613
  81.4278129  30.6029027  96.0127665  81.7415392  29.1221568  95.9837031
  80.4583026  29.3449281  98.5970933  80.9582804  29.4565815  97.7885252
  81.1018634  29.0410334  99.2371742  74.5165022  37.2527910 111.4838774
  74.0332104  38.0528270 111.6902663  74.6025961  37.2635855 110.5306218
  67.7850981  39.0856290  99.4060594  67.7621670  39.1843977  98.4542477
  68.0951618  39.9321441  99.7277760  70.4438359  41.1432445 103.5207208
  71.3981613  41.1116387 103.4537140  70.2450883  40.6823069 104.3357434
  71.0337741  39.7133561 106.0878006  71.8530630  40.2077640 106.1112843
  71.3074549  38.7965529 106.0595573  80.7904338  32.1044313  95.4505961
  79.9030193  32.3893964  95.2326156  81.2058327  31.9438077  94.6033238
  84.1418874  32.1290834  99.1660301  84.9179264  32.6187287  99.4384917
  83.4167008  32.5548889  99.6232170  86.5791432  32.8418454 100.2234241
  87.1735923  32.6014190  99.5127549  86.6518016  32.1225584 100.8507777
  68.7988588  46.6852065 100.5377406  68.6643056  45.9252465  99.9715404
  68.3820650  47.4092964 100.0706195  79.9347551  41.8688988  89.5453981
  80.6383401  42.0738991  90.1611637  79.2110200  42.4365750  89.8103065
  80.7645361  37.6198849  95.6656251  80.7080563  38.0767401  94.8263884
  81.3173704  36.8589534  95.4879094  84.5750167  33.4088581  96.4906371
  84.3187102  33.0085217  97.3214579  83.9503035  34.1232375  96.3656510
  88.8862505  36.1484654  98.9977662  88.3262063  36.2177844  99.7709224
  88.2806009  35.9725639  98.2777159  71.9557714  47.5821382 100.7495849
  71.8390098  48.5266814 100.6474539  71.1350160  47.2794943 101.1381648
  81.8434249  42.3071517  91.5952441  82.6779852  41.8752716  91.4129916
  81.6818591  42.1353531  92.5229336  81.4980141  38.8103631  92.9608781
  81.4428945  38.6447902  92.0197225  80.8726196  39.5179664  93.1170970
  66.2872656  34.0471695 106.7870203  66.9331519  33.5370649 107.2757428
  66.0789807  34.7840377 107.3613628  78.8126048  41.1152542 112.2862343
  79.6817208  41.2893195 111.9248978  78.3332799  41.9346959 112.1638073
  74.8076266  28.3111740  92.5394099  74.7954936  29.2553580  92.6962370
  75.6999688  28.1281885  92.2453560  72.9812228  48.2349643 103.9651777
  73.8839475  48.2673254 104.2818272  72.7549598  47.3050094 103.9798113
  74.7365830  46.9880630 100.6261856  73.7861461  46.9882492 100.5126228
  75.0398316  46.2413365 100.1097890  78.6228386  24.9054516  96.7940036
  77.8560781  24.3513003  96.9396718  79.0339091  24.9776385  97.6554187
  70.6270147  31.1939312 110.8845217  71.4901608  30.8376117 111.0948542
  70.0535557  30.8553207 111.5720621  90.4718524  52.8241168 101.6907618
  91.1096934  52.7047916 100.9870958  90.3539367  53.7722012 101.7495570
  87.2808230  52.7768597 101.6269143  86.9426741  52.6609661 100.7389678
  88.1497998  52.3759762 101.6070149  83.1395046  54.6304073  97.6166034
  82.5759911  54.5394010  96.8482322  83.0247441  53.8103977  98.0968526
  87.7628013  53.9303448 107.5855348  87.7516654  53.5356247 106.7135852
  87.9248652  53.1969521 108.1789120  80.6859478  56.1255265 100.4550254
  81.4780769  55.7846089 100.0396554  80.9256128  56.2350240 101.3752408
  88.7194604  58.2975041  92.9280499  88.0682584  58.8829121  92.5414512
  89.5138967  58.8281236  92.9875536  82.6450231  55.3864178  93.3267633
  83.4181107  54.8393165  93.1880509  82.9975630  56.2508427  93.5382094
  84.4835274  56.7140560 106.5334532  84.1925140  57.6186191 106.4181199
  85.1192258  56.7557088 107.2478602  85.4091481  54.0917409 103.1235892
  86.0055053  53.8673431 102.4092855  85.4666452  53.3502154 103.7261340
  84.9816509  51.5456844  90.9586083  85.2342030  51.0238365  90.1969546
  84.0441068  51.3822989  91.0612767  90.0259792  50.5492622  98.7660826
  90.8122881  50.1312045  98.4151243  90.2898496  51.4538714  98.9342475
  90.1969869  55.9865473  93.4649483  89.5615702  56.0600099  94.1770388
  89.8667276  56.5759071  92.7868562  95.4268219  50.4867855  99.6693805
  96.1593391  49.9167072  99.9031634  94.6707575  50.0989456 100.1100310
  84.7012798  53.4484950  93.1610458  84.5849056  52.7729853  93.8291542
  84.8115058  52.9617324  92.3442611  87.0444339  52.9095097  96.8657147
  86.6802546  52.3825718  97.5770069  87.9011455  52.5193566  96.6923633
  92.9493640  44.1989430 104.1288413  92.6176964  45.0684841 103.9049628
  92.3539253  43.8825714 104.8082444  86.6849826  47.9384997  91.8618496
  86.8524228  48.8065233  92.2288967  86.4946995  48.1012278  90.9379785
  89.4425159  56.4001976 103.5284326  89.1425882  57.3027014 103.4200133
  89.0976219  56.1334159 104.3805479  82.8937641  52.8515772  99.5621030
  81.9688137  52.7191987  99.7698722  83.1422054  53.6309992 100.0590973
  92.8422303  48.9184516 101.2081763  91.9339180  48.8499924 100.9140524
  92.7909899  49.3956461 102.0363589  86.6639047  50.3942654  92.8465162
  86.5438672  50.8399705  93.6850643  85.9691635  50.7427972  92.2878701
  80.2546452  52.4949046 100.3964820  80.3838833  52.7483525 101.3104231
  79.5743903  53.0876754 100.0769475  84.4245939  63.1646296  96.4955294
  84.3469969  64.1154121  96.5743774  83.8207583  62.8192168  97.1530220
  86.9163169  50.3374161 109.1516661  86.1396503  50.8968081 109.1419525
  87.5553732  50.8230944 109.6731531  94.7083949  47.1200954 102.9859637
  94.0658330  47.4133487 102.3399432  94.2038878  47.0053874 103.7912834
  92.3624113  50.8664127  93.6745497  93.2741969  51.0991514  93.4993194
  91.8533760  51.4501172  93.1120575  85.1709541  53.1459615 108.7134628
  85.9124225  53.6844659 108.4369451  84.4646526  53.7725903 108.8706179
  90.6464881  55.2888755 107.3106789  91.0548237  54.8471166 106.5661421
  89.9242142  54.7141383 107.5640982  86.9995951  50.2261362 104.6840346
  87.8457146  50.6500775 104.8274995  86.9394588  49.5694986 105.3778909
  90.9693695  55.8489946 101.0659078  90.3402558  56.0135660 100.3635146
  90.5819357  56.2631555 101.8370042  94.8482927  56.7844384  98.4203442
  94.1633965  57.1643285  97.8700475  94.9326776  57.3939710  99.1535390
  90.1495396  47.8865730 106.3421520  89.9056328  48.6407791 105.8055795
  90.4255327  48.2651078 107.1768767  92.1033859  54.4304343 105.0198785
  92.3150754  55.0736103 104.3433166  92.0563607  53.5966659 104.5520715
  89.7060088  47.0422163 101.9235357  88.8444567  47.3403417 102.2152095
  89.7322522  47.2592562 100.9916390  86.5221657  55.5864354  98.3309163
  86.9860003  55.8652057  97.5413786  86.2578455  54.6847798  98.1482254
  83.4145738  55.1335835 101.2688926  83.9847095  55.5623104 100.6306411
  84.0053850  54.8518420 101.9673112  85.4590543  51.7087506  95.1398728
  86.1614587  52.1608550  95.6072655  85.1271172  51.0671325  95.7678621
  83.9070905  50.2999263 109.5149938  83.2769565  50.9815544 109.7485334
  83.8006993  50.1882344 108.5703076  79.2015877  49.9671059 100.4415862
  78.4114931  50.2228587  99.9655972  79.6927125  50.7819397 100.5467902
  93.2179687  57.3076298 103.1921143  94.0397130  56.9056485 102.9103824
  93.2142090  57.2044532 104.1437258  81.1530623  50.3315638  97.3999338
  80.3561786  50.4434332  97.9182834  80.9256215  50.6702290  96.5340229
  86.9836290  56.8560341 105.3481853  87.0480723  57.3180749 106.1840025
  86.2747214  56.2257706 105.4764163  77.4853580  50.2201549 102.8730853
  77.7361619  51.1048559 103.1388429  78.0213129  50.0406151 102.1005944
 101.3085680  53.6515047  99.5406114 100.5549388  53.0822445  99.3850119
 101.4433221  53.6177711 100.4876749  86.6984308  58.5228449  95.2160833
  86.5629983  59.3679985  95.6445681  87.2394120  58.7247727  94.4526767
  83.1851647  44.6020029 111.8775189  82.7918593  44.0486227 112.5522833
  84.0017788  44.9130607 112.2681706  80.1513705  56.0403887  95.7888759
  80.6638226  56.8347137  95.9394323  80.8036418  55.3430177  95.7222360
  81.9608590  59.1569643  97.8711512  82.1375218  60.0787608  97.6832496
  82.7565423  58.8428062  98.3005891  86.1019608  46.0177908 109.4695445
  86.8429322  46.6185061 109.3899908  86.3337531  45.2755546 108.9113488
  81.2460946  51.2034275 107.7473675  81.1314462  50.3019532 108.0480774
  80.3905464  51.4497972 107.3958491  88.3252784  59.1452015 109.3461176
  87.8816638  58.3588394 109.0282080  88.9869998  59.3331166 108.6805066
  83.0839905  60.6747817 103.8721854  83.6347331  60.5464880 103.0998848
  82.2451381  60.9742706 103.5216747  90.4234022  59.4254815 107.3742577
  90.4052498  60.2463696 106.8822846  91.3453942  59.3008891 107.5992718
  86.8807076  56.9398945 108.2166085  87.4135413  56.1787233 107.9865393
  86.3521158  56.6472597 108.9590240  90.0476771  42.0459011 103.7459727
  89.7041041  42.9360652 103.6698837  90.4155734  41.8560668 102.8829312
  78.1162622  54.3692541  96.5648329  78.9537844  54.7789550  96.3482037
  78.2940890  53.4291983  96.5348523  90.0127054  52.0367622  92.2532162
  89.4973678  52.8072226  92.4920549  89.7404363  51.3632758  92.8765223
  87.5974165  46.8817323  97.3117400  86.7415762  46.4924173  97.1323039
  88.0101117  46.9609283  96.4517186  89.1273312  44.4163666 101.7108960
  88.6238107  44.3793801 100.8976765  89.4203919  45.3256409 101.7705617
  85.3716198  44.5002396 100.7175142  86.2369194  44.3045204 100.3581031
  85.4393707  44.2712747 101.6444499  94.9861328  54.7899977  94.1885336
  94.2090771  54.4511136  93.7440498  95.6652809  54.7952600  93.5140301
  89.8013357  49.9094714  94.0791943  89.4963493  50.2240863  94.9302086
  90.7543799  49.9876134  94.1219276  88.2459789  56.0684937  95.7284897
  87.7181151  55.3337697  95.4158135  87.7447292  56.8459614  95.4824866
  93.2252635  54.2633958 100.8451943  92.5676310  54.9533219 100.9332072
  94.0293034  54.6530390 101.1885930  82.9778517  46.7304604  98.0891509
  83.5522269  46.5079785  97.3564702  83.5649499  46.7993298  98.8420110
  92.0358094  52.6178330  98.8955885  92.5489976  53.2508322  99.3977595
  92.6859318  52.0179526  98.5299245  83.3048104  48.7609065  92.1087394
  82.4685416  49.0983751  92.4296669  83.1652874  48.6258044  91.1714531
  85.2801184  43.6045852  96.8166578  84.6265597  43.2894870  96.1923193
  85.2381659  42.9821593  97.5426401  86.3912389  53.8865148  88.7319870
  85.4839451  53.6554401  88.9311019  86.8883421  53.0902767  88.9193852
  89.2980468  62.5962655  91.6516556  88.6242167  62.8994351  92.2601514
  89.6846290  63.3991735  91.3022013  88.5138925  50.0927786 101.1414226
  87.5961486  50.3142733 100.9835914  88.9299068  50.1674096 100.2825933
  89.2973973  51.4919202  96.2716906  90.0445792  52.0040599  95.9624028
  89.5665562  51.1703254  97.1321300  87.5700623  53.9877742  93.2543860
  86.6611842  53.7036775  93.3516330  87.5995707  54.4076821  92.3947167
  92.8019890  57.5984332  97.0235028  92.3482217  56.7575242  97.0800218
  92.1713857  58.2345730  97.3609808  91.7452810  48.5276318  98.2535695
  91.0075567  48.0153704  98.5845938  91.9979583  48.0876700  97.4418972
  91.2452829  59.4360829  97.9584846  91.5375804  59.9965886  97.2397212
  91.7551450  59.7289390  98.7138005  91.8464437  41.3052570  98.8477465
  92.1523314  40.4449933  98.5603380  92.5717042  41.8970190  98.6476458
  78.1388793  51.7083257  97.2359063  77.9413193  51.1152617  96.5110129
  77.5835457  51.4035467  97.9535001  86.1185517  51.6006363  99.3553656
  86.1734127  50.6480199  99.2796132  85.3076719  51.7565802  99.8394954
  87.2676711  55.5286486  90.5931939  86.8296140  54.8122345  90.1337576
  88.0087151  55.7562601  90.0317030  84.0577877  50.2183423  97.1144035
  83.2445742  50.5177593  97.5209227  84.5536871  49.8239112  97.8318517
  86.2086455  60.2141180  99.0478299  86.1662633  60.4402026  98.1186831
  87.1249153  59.9804554  99.1964100  89.6552088  50.6825247 105.9458928
  90.0101476  50.9096720 106.8053394  90.3024220  51.0143624 105.3236184
  95.3849825  53.8043683  96.6508257  95.2467724  53.9945279  95.7229447
  95.0286044  54.5663066  97.1076309  83.5491951  47.7901778 102.7305269
  84.1891331  47.6490537 102.0328233  82.7169482  47.5036292 102.3543871
  95.4119205  55.8720210 101.6619529  95.8455712  55.7795499 102.5102583
  96.1250786  55.8477711 101.0239545  84.3252255  57.0904209  98.8440262
  85.1192854  56.5954529  98.6422837  83.6143948  56.5622072  98.4807968
  89.1447100  59.4722304 103.1952630  89.1984122  60.0413241 103.9630345
  88.2761881  59.6424189 102.8306667  80.6335019  51.2347290  94.9200015
  79.7032607  51.1731746  95.1369977  80.7292491  50.7123243  94.1236656
  80.5520568  47.7602103  97.5078256  80.8127385  48.6747437  97.3987417
  81.3737740  47.2926546  97.6574869  82.0245493  49.1739860 104.6777081
  82.6968547  48.9657223 104.0289730  81.1975280  48.9761946 104.2382313
  96.2734755  55.9143911 104.1952414  96.4670645  56.8189721 104.4411689
  96.1735373  55.4551330 105.0290999  87.9271065  45.8001801 106.6942742
  87.2798980  46.4991751 106.6007218  88.6972081  46.2337945 107.0618990
  91.3349863  56.0650654 109.7693295  91.1835370  55.8361205 108.8523379
  91.3254543  57.0221255 109.7824640  88.1035200  53.6382566 104.7539561
  89.0327260  53.7893726 104.5808529  87.6826230  53.7266587 103.8988208
  86.9023531  57.6633231 102.5238099  86.7634617  57.2952015 103.3964037
  86.1138128  58.1780870 102.3522057  87.4971683  62.7642327  93.8663636
  87.6723439  62.2930370  94.6809258  86.8104471  63.3908093  94.0944896
  88.4528747  57.0414833  99.9126937  88.1178579  57.0015603 100.8084587
  87.9532692  56.3759549  99.4397347  82.4272990  52.4482463 105.4379518
  82.2892788  51.7162702 106.0391057  83.3377914  52.3591364 105.1563706
  91.3887938  54.3870868  90.1863996  90.7717109  53.6617696  90.0897049
  90.9204427  55.1480228  89.8431071  85.0555291  52.1602423 104.9263198
  85.7654910  51.5195615 104.8849816  85.0124599  52.4115318 105.8489378
  93.0442070  59.0969776 107.8469777  92.9854616  58.4128996 107.1800360
  93.4461588  59.8388766 107.3950403  83.7684225  49.1467641 106.7458837
  83.2321582  48.6958379 107.3980433  83.1800934  49.2813549 106.0029301
  82.0632769  65.9131690 100.6403496  82.3029367  66.5450214 101.3182514
  81.2201965  65.5619730 100.9268855  83.1786484  48.6056292  89.3085301
  82.3015950  48.4845093  88.9447547  83.6544237  47.8142370  89.0564189
  93.0459477  57.0609360 106.0783757  92.1586256  56.7235282 106.2010155
  93.6158028  56.3292391 106.3152522  74.6988624  53.3933452  99.4026808
  75.3859664  53.0795182  98.8147823  74.5436753  54.2974816  99.1294059
  79.5023346  48.2823648 103.8311832  79.4181535  47.6749318 103.0962242
  78.6806053  48.7732667 103.8321328  86.5760631  61.7210812 103.0445000
  86.5030802  62.5265784 103.5564304  86.1338024  61.9202778 102.2193021
  86.3650410  60.9582582  96.5547821  85.5817932  61.5004263  96.6486046
  87.0643155  61.4756562  96.9542062  89.6747060  46.7677212  99.1982027
  90.1715760  46.0147174  98.8783097  88.9034042  46.8041528  98.6325236
  97.5276818  52.4717577 100.8400318  97.5166694  53.3542293 100.4694251
  96.6594197  52.1189128 100.6454855  89.0359314  61.6197646 105.2003158
  89.7487286  62.2545111 105.1279060  88.5449343  61.7161512 104.3843160
  90.7576841  55.5248899  96.7720450  89.8233120  55.6450362  96.6025154
  90.9353509  54.6221366  96.5080460  86.2582029  48.9094595  98.9253711
  85.8879817  48.3565635  99.6134617  86.7541121  48.3052728  98.3728711
  94.1449392  51.3666218  97.3070484  94.6109844  52.1994210  97.2330787
  94.5956893  50.9011200  98.0115743  84.0871228  59.3692090 106.0208729
  84.7880687  60.0028573 106.1738123  83.6166343  59.7106821 105.2604368
  92.2125623  57.7110040  94.3056636  92.4885467  57.5966634  95.2150510
  91.3430122  57.3127524  94.2668809  92.1166055  43.7346805 101.3461386
  91.2029135  43.9651032 101.5143592  92.5459156  43.8185249 102.1975418
  91.8872514  51.9236697 103.8461280  91.2343964  52.1712605 103.1913732
  92.2652893  51.1100835 103.5123757  88.8479687  61.9596390  97.9489450
  89.0302082  61.1418046  98.4117202  89.6712673  62.1764083  97.5114340
  89.1821853  60.8864576  95.2104498  89.7109619  60.3757030  94.5974660
  89.4450072  60.5707106  96.0750031  87.9360087  52.6656508 110.3327317
  87.2600724  52.5650638 111.0029692  88.7587720  52.5095722 110.7963314
  79.6838946  58.9028445 102.9539832  80.2692382  58.1572133 103.0867736
  79.4863784  59.2132402 103.8376496  82.5377601  61.9379692  97.9702274
  81.8687976  62.4225820  97.4866314  82.3990471  62.1848913  98.8845653
  74.2756600  51.4734045 101.6744275  74.3140700  50.9397636 102.4681393
  73.7696893  50.9469251 101.0555252  86.6782869  63.9723436 104.5684933
  87.2301177  64.1355057 105.3334018  87.0189063  64.5627874 103.8964957
  81.6547363  46.3198586 105.1706817  81.7188689  47.1813417 104.7584215
  81.5914483  45.7072587 104.4379176  81.1299635  48.3921718 108.8179852
  81.7571674  48.0098795 109.4317376  80.2727554  48.1735920 109.1835544
  91.5293744  58.7984693 110.4233587  92.0733648  59.4114652 109.9288542
  90.9480589  59.3564272 110.9400600  77.9065178  50.1998147  94.7498206
  78.2018619  49.2908826  94.6965260  77.0053214  50.1785887  94.4279209
  89.8151257  61.9205411 101.5548615  89.6902396  61.1195151 101.0459560
  90.4730348  62.4151605 101.0662585  81.4359425  48.2754144 100.7325755
  80.7146011  48.8890112 100.5933228  82.2252681  48.8111909 100.6542401
  91.8786165  59.7214431 103.1828165  90.9316501  59.6019783 103.1106492
  92.2268938  58.8336929 103.2654426  84.2385738  45.6108570 107.0066407
  84.7620140  45.8570867 107.7692716  84.0198072  46.4428605 106.5869544
  79.6353020  47.8812245  94.8737532  79.3065726  47.0009624  94.6912637
  79.9892390  47.8259914  95.7613921  88.8832598  59.5167148  99.3832517
  88.7357561  58.5883855  99.5640087  89.7086092  59.5387238  98.8989592
  82.7494843  48.1685215  95.2413009  83.0890915  48.6971136  94.5191618
  83.1966963  48.5065621  96.0171576  92.4866720  60.3395706 100.4697390
  93.4113268  60.1338568 100.3321841  92.3182024  60.0912108 101.3786731
  85.4438284  46.5522265 104.6916077  85.1035104  45.7530079 105.0936757
  84.7377290  46.8523976 104.1192910  86.0954755  43.6371578 103.1443400
  86.9180825  43.1632056 103.0222291  86.3392819  44.4162062 103.6442087
  84.7362990  46.6659836  93.4406302  85.4571352  47.0441089  92.9370019
  84.1128294  47.3848713  93.5441280  88.8794113  47.3704985  94.3764634
  89.0957727  48.2529623  94.0753462  88.3988180  46.9791199  93.6470276
  83.6193334  50.3290699 100.9535379  83.4737915  50.6431002 101.8459660
  83.1418538  50.9475599 100.4006278  85.4789717  47.3193246 101.0016268
  85.4651286  46.4234340 100.6648566  86.1962145  47.3263910 101.6354555
  87.3315848  47.7530587 103.0469396  87.0733626  48.6747657 103.0453726
  86.8000888  47.3561021 103.7369860  92.2762036  60.8581374  95.8259481
  92.4498914  60.2927796  95.0733334  92.7690928  61.6582269  95.6438971
  78.0938996  52.8696043 103.8923040  77.5492464  53.6455851 104.0243314
  78.9718346  53.2166847 103.7342162  84.8826613  46.2007627  96.2703839
  85.0042524  45.2724273  96.4694726  84.5928655  46.2146313  95.3582154
  87.7517803  43.8862537  99.4070558  87.7739500  43.9501870  98.4522538
  88.1685862  43.0467046  99.6011065  98.1301428  53.6217797  97.4449781
  98.5732574  52.8725122  97.0468904  97.2527938  53.6127933  97.0623513
  93.2637209  60.1748138  92.9256380  93.9588114  60.7954831  93.1443694
  93.6060359  59.3243489  93.2008757  78.8805018  51.9965939 106.7853197
  78.1386754  52.1448575 107.3717827  78.5597762  52.2574205 105.9219946
  95.1628632  57.6247844  94.4543710  95.6879956  57.9635117  93.7293030
  95.0750985  56.6894859  94.2706845  86.8248681  61.5381917 106.5833587
  87.1335807  61.2931064 107.4556287  87.6224163  61.7428556 106.0952457
  86.8469293  63.6919827  98.8138964  86.4074283  63.1996206  99.5071820
  87.5977410  63.1492795  98.5731039  79.3261632  59.8831368  98.8163592
  80.1519652  59.5835140  98.4362235  78.9755684  59.1138990  99.2653380
  84.2943165  59.2357836 100.8861265  83.6723174  58.5728541 100.5863493
  84.9648032  59.2618968 100.2034913  77.5270237  57.8017694  99.7752525
  76.6902145  57.3739869  99.5936526  77.4993882  57.9950138 100.7123316
  84.3667692  47.7139624 110.4793771  84.4155848  48.5901747 110.0971541
  84.9090207  47.1717017 109.9065414  94.8522538  58.2580747 109.7594908
  94.0618082  58.2404886 109.2199408  94.6155893  58.7969041 110.5143945
  94.9720413  55.1073214 107.0727637  95.0218418  54.9423221 108.0143160
  94.8634337  54.2400473 106.6825518  83.8556672  57.7861759  94.3619726
  84.0044792  58.4697224  93.7086398  84.6623115  57.7666850  94.8769181
  92.2624176  51.0904142 108.3886944  93.1634038  50.9510607 108.0970941
  92.3372150  51.2558597 109.3285121  86.5966981  48.4670997 107.2340130
  85.7270290  48.7604563 106.9622718  86.8326461  49.0511442 107.9547394
  96.4738610  57.5270155 107.3169658  96.1823418  57.8900136 108.1533119
  95.8610741  56.8137164 107.1382990  97.6734292  55.0923035  99.8372229
  98.5081184  55.5312839 100.0009789  97.8093421  54.6161688  99.0180474
  94.7225798  52.6502770 105.7849716  95.1979920  52.8430416 104.9768568
  93.7991364  52.7061956 105.5393100  81.6109305  53.8126937  95.3680795
  81.3655347  52.9089267  95.5661005  81.7805219  53.8144088  94.4260273
  89.3006015  44.6850613 104.7505550  89.8187959  45.4211640 104.4252039
  88.9461147  44.9914607 105.5852309  80.8804952  49.5455295  92.8666956
  80.1874197  49.6199650  92.2106992  80.6356704  48.7815638  93.3888473
  89.5518609  41.1050896 100.2706447  89.8320363  40.4374085 100.8966873
  90.3369216  41.2979992  99.7581111  87.3552077  60.2809890  91.8331473
  86.7826044  60.9000077  91.3801945  87.9284871  60.8309252  92.3671395
  93.4227467  49.5268530 104.0178022  94.3744890  49.6266628 104.0390246
  93.2530918  48.7346799 104.5276106  91.4441847  46.6124113 104.2037423
  90.8491779  46.8929126 103.5083912  91.1591543  47.1018014 104.9754164
  90.5749337  60.5647040  92.9640055  91.5080010  60.4992602  93.1672931
  90.4872550  61.4003307  92.5054588  93.2037354  59.8812910  89.9244003
  93.1250985  59.5472774  90.8179761  94.0247021  60.3734678  89.9235475
  95.9015545  52.7474650 103.1320322  95.8691865  51.8090650 103.3180005
  96.5116169  52.8258686 102.3986146  87.7398876  51.6170703  89.1747526
  88.6857981  51.4876911  89.2435944  87.3613121  50.8785365  89.6516954
  96.0510034  49.5385693 103.1778605  95.5349082  48.7544150 102.9908534
  96.9349982  49.2104410 103.3425124  93.7120760  43.2826709  99.1374417
  93.5145582  42.9741797 100.0217749  94.3220466  44.0088348  99.2672347
 101.7192095  53.8090657 102.2726358 102.4495483  53.5475945 102.8334062
 101.1099040  53.0719378 102.3128426  99.8007392  51.9498519 102.8700810
  99.0740556  51.8154484 102.2617301  99.3854679  52.2575348 103.6757528
  87.6237568  55.6688449 110.6348183  88.5440578  55.8467048 110.8288229
  87.5887151  54.7244494 110.4827882  85.9241793  49.5420679  89.1102411
  85.0173248  49.2453792  89.1865124  86.2017774  49.2450497  88.2436697
  76.8419733  50.8627042  99.5601457  76.5222518  50.0092351  99.2675831
  76.2953162  51.0775621 100.3159425  80.6199641  53.5789483 103.2770964
  80.8385651  54.5106591 103.2958998  81.0325415  53.2197458 104.0625768
  87.5403859  44.0857569  95.2646652  86.7304587  43.7404654  95.6401898
  88.2288276  43.7765112  95.8534264  89.4694407  43.1635616  96.8870949
  90.0225446  43.5831069  97.5460972  89.7064493  42.2371364  96.9293905
  85.4927506  49.1522689 112.6673713  85.3924233  50.1017046 112.5985804
  85.2749048  48.8240928 111.7949783  84.6940578  46.4007614  89.2514390
  85.5559742  46.7262513  89.5110207  84.8790922  45.6139110  88.7387456
  76.7107993  54.4829954 101.5294579  76.0171465  54.0683907 101.0164533
  77.4580984  54.5250490 100.9327998  92.8473214  45.2736141  96.3949613
  92.2671883  45.9320945  96.0127665  92.5809147  44.4513485  95.9837031
  91.2976781  44.6741198  98.5970933  91.7976559  44.7857733  97.7885252
  91.9412388  44.3702251  99.2371742  85.3558776  52.5819828 111.4838774
  84.8725858  53.3820188 111.6902663  85.4419715  52.5927773 110.5306218
  78.6244736  54.4148208  99.4060594  78.6015424  54.5135895  98.4542477
  78.9345372  55.2613359  99.7277760  81.2832114  56.4724363 103.5207208
  82.2375367  56.4408305 103.4537140  81.0844637  56.0114986 104.3357434
  81.8731496  55.0425479 106.0878006  82.6924385  55.5369557 106.1112843
  82.1468304  54.1257447 106.0595573  91.6298092  47.4336231  95.4505961
  90.7423947  47.7185882  95.2326156  92.0452081  47.2729994  94.6033238
  94.9812628  47.4582752  99.1660301  95.7573018  47.9479205  99.4384917
  94.2560762  47.8840806  99.6232170  97.4185187  48.1710371 100.2234241
  98.0129678  47.9306107  99.5127549  97.4911771  47.4517502 100.8507777
  79.6382343  62.0143982 100.5377406  79.5036811  61.2544383  99.9715404
  79.2214405  62.7384882 100.0706195  90.7741306  57.1980906  89.5453981
  91.4777156  57.4030908  90.1611637  90.0503954  57.7657668  89.8103065
  91.6039116  52.9490767  95.6656251  91.5474317  53.4059318  94.8263884
  92.1567458  52.1881452  95.4879094  95.4143922  48.7380499  96.4906371
  95.1580856  48.3377135  97.3214579  94.7896790  49.4524293  96.3656510
  99.7256260  51.4776572  98.9977662  99.1655818  51.5469761  99.7709224
  99.1199763  51.3017557  98.2777159  82.7951468  62.9113299 100.7495849
  82.6783853  63.8558732 100.6474539  81.9743915  62.6086861 101.1381648
  92.6828003  57.6363435  91.5952441  93.5173607  57.2044633  91.4129916
  92.5212346  57.4645449  92.5229336  92.3373895  54.1395548  92.9608781
  92.2822699  53.9739820  92.0197225  91.7119950  54.8471581  93.1170970
  77.1266410  49.3763613 106.7870203  77.7725274  48.8662567 107.2757428
  76.9183561  50.1132294 107.3613628  89.6519802  56.4444460 112.2862343
  90.5210962  56.6185112 111.9248978  89.1726554  57.2638877 112.1638073
  85.6470021  43.6403657  92.5394099  85.6348690  44.5845497  92.6962370
  86.5393443  43.4573803  92.2453560  83.8205983  63.5641561 103.9651777
  84.7233229  63.5965171 104.2818272  83.5943353  62.6342012 103.9798113
  85.5759585  62.3172548 100.6261856  84.6255216  62.3174409 100.5126228
  85.8792071  61.5705282 100.1097890  89.4622140  40.2346434  96.7940036
  88.6954536  39.6804921  96.9396718  89.8732845  40.3068303  97.6554187
  81.4663901  46.5231230 110.8845217  82.3295363  46.1668035 111.0948542
  80.8929312  46.1845125 111.5720621 101.3112278  68.1533086 101.6907618
 101.9490688  68.0339833 100.9870958 101.1933121  69.1013930 101.7495570
  98.1201984  68.1060514 101.6269143  97.7820496  67.9901579 100.7389678
  98.9891753  67.7051679 101.6070149  93.9788800  69.9595991  97.6166034
  93.4153665  69.8685928  96.8482322  93.8641195  69.1395895  98.0968526
  98.6021767  69.2595366 107.5855348  98.5910408  68.8648164 106.7135852
  98.7642407  68.5261439 108.1789120  91.5253232  71.4547182 100.4550254
  92.3174524  71.1138007 100.0396554  91.7649882  71.5642157 101.3752408
  99.5588359  73.6266958  92.9280499  98.9076339  74.2121039  92.5414512
 100.3532722  74.1573153  92.9875536  93.4843986  70.7156095  93.3267633
  94.2574862  70.1685083  93.1880509  93.8369385  71.5800345  93.5382094
  95.3229029  72.0432478 106.5334532  95.0318895  72.9478109 106.4181199
  95.9586013  72.0849005 107.2478602  96.2485235  69.4209326 103.1235892
  96.8448808  69.1965349 102.4092855  96.3060207  68.6794072 103.7261340
  95.8210264  66.8748762  90.9586083  96.0735784  66.3530283  90.1969546
  94.8834823  66.7114907  91.0612767 100.8653547  65.8784540  98.7660826
 101.6516636  65.4603963  98.4151243 101.1292251  66.7830632  98.9342475
 101.0363624  71.3157390  93.4649483 100.4009457  71.3892017  94.1770388
 100.7061030  71.9050989  92.7868562 106.2661974  65.8159773  99.6693805
 106.9987146  65.2458990  99.9031634 105.5101329  65.4281374 100.1100310
  95.5406553  68.7776868  93.1610458  95.4242811  68.1021771  93.8291542
  95.6508812  68.2909241  92.3442611  97.8838093  68.2387015  96.8657147
  97.5196301  67.7117636  97.5770069  98.7405209  67.8485484  96.6923633
 103.7887394  59.5281347 104.1288413 103.4570719  60.3976758 103.9049628
 103.1933007  59.2117631 104.8082444  97.5243580  63.2676914  91.8618496
  97.6917983  64.1357151  92.2288967  97.3340750  63.4304196  90.9379785
 100.2818914  71.7293893 103.5284326  99.9819637  72.6318932 103.4200133
  99.9369973  71.4626076 104.3805479  93.7331395  68.1807690  99.5621030
  92.8081892  68.0483904  99.7698722  93.9815808  68.9601909 100.0590973
 103.6816057  64.2476433 101.2081763 102.7732935  64.1791842 100.9140524
 103.6303653  64.7248378 102.0363589  97.5032801  65.7234572  92.8465162
  97.3832427  66.1691623  93.6850643  96.8085390  66.0719890  92.2878701
  91.0940206  67.8240964 100.3964820  91.2232587  68.0775443 101.3104231
  90.4137657  68.4168672 100.0769475  95.2639693  78.4938214  96.4955294
  95.1863723  79.4446039  96.5743774  94.6601337  78.1484086  97.1530220
  97.7556923  65.6666079 109.1516661  96.9790257  66.2259999 109.1419525
  98.3947486  66.1522862 109.6731531 105.5477704  62.4492872 102.9859637
 104.9052084  62.7425405 102.3399432 105.0432632  62.3345792 103.7912834
 103.2017867  66.1956045  93.6745497 104.1135724  66.4283432  93.4993194
 102.6927515  66.7793089  93.1120575  96.0103295  68.4751532 108.7134628
  96.7517980  69.0136576 108.4369451  95.3040281  69.1017821 108.8706179
 101.4858635  70.6180673 107.3106789 101.8941991  70.1763083 106.5661421
 100.7635897  70.0433300 107.5640982  97.8389705  65.5553280 104.6840346
  98.6850900  65.9792693 104.8274995  97.7788343  64.8986904 105.3778909
 101.8087450  71.1781863 101.0659078 101.1796312  71.3427578 100.3635146
 101.4213112  71.5923473 101.8370042 105.6876682  72.1136301  98.4203442
 105.0027720  72.4935203  97.8700475 105.7720531  72.7231628  99.1535390
 100.9889151  63.2157648 106.3421520 100.7450082  63.9699708 105.8055795
 101.2649081  63.5942996 107.1768767 102.9427613  69.7596260 105.0198785
 103.1544509  70.4028020 104.3433166 102.8957362  68.9258577 104.5520715
 100.5453842  62.3714081 101.9235357  99.6838321  62.6695335 102.2152095
 100.5716277  62.5884480 100.9916390  97.3615412  70.9156272  98.3309163
  97.8253757  71.1943975  97.5413786  97.0972210  70.0139716  98.1482254
  94.2539493  70.4627753 101.2688926  94.8240850  70.8915021 100.6306411
  94.8447605  70.1810338 101.9673112  96.2984298  67.0379424  95.1398728
  97.0008341  67.4900468  95.6072655  95.9664926  66.3963243  95.7678621
  94.7464659  65.6291181 109.5149938  94.1163320  66.3107461 109.7485334
  94.6400747  65.5174262 108.5703076  90.0409632  65.2962977 100.4415862
  89.2508686  65.5520505  99.9655972  90.5320879  66.1111314 100.5467902
 104.0573441  72.6368216 103.1921143 104.8790885  72.2348403 102.9103824
 104.0535844  72.5336450 104.1437258  91.9924377  65.6607556  97.3999338
  91.1955540  65.7726250  97.9182834  91.7649969  65.9994208  96.5340229
  97.8230045  72.1852259 105.3481853  97.8874477  72.6472666 106.1840025
  97.1140969  71.5549624 105.4764163  88.3247335  65.5493467 102.8730853
  88.5755373  66.4340477 103.1388429  88.8606883  65.3698069 102.1005944
 112.1479434  68.9806964  99.5406114 111.3943143  68.4114362  99.3850119
 112.2826975  68.9469629 100.4876749  97.5378062  73.8520367  95.2160833
  97.4023737  74.6971902  95.6445681  98.0787875  74.0539644  94.4526767
  94.0245402  59.9311946 111.8775189  93.6312348  59.3778145 112.5522833
  94.8411542  60.2422525 112.2681706  90.9907460  71.3695805  95.7888759
  91.5031980  72.1639055  95.9394323  91.6430173  70.6722095  95.7222360
  92.8002344  74.4861561  97.8711512  92.9768973  75.4079526  97.6832496
  93.5959178  74.1719980  98.3005891  96.9413363  61.3469825 109.4695445
  97.6823076  61.9476979 109.3899908  97.1731286  60.6047463 108.9113488
  92.0854701  66.5326193 107.7473675  91.9708216  65.6311450 108.0480774
  91.2299219  66.7789890 107.3958491  99.1646539  74.4743933 109.3461176
  98.7210393  73.6880312 109.0282080  99.8263752  74.6623084 108.6805066
  93.9233660  76.0039735 103.8721854  94.4741085  75.8756798 103.0998848
  93.0845136  76.3034624 103.5216747 101.2627777  74.7546733 107.3742577
 101.2446252  75.5755614 106.8822846 102.1847697  74.6300808 107.5992718
  97.7200831  72.2690862 108.2166085  98.2529168  71.5079151 107.9865393
  97.1914912  71.9764514 108.9590240 100.8870526  57.3750928 103.7459727
 100.5434795  58.2652570 103.6698837 101.2549489  57.1852586 102.8829312
  88.9556377  69.6984459  96.5648329  89.7931599  70.1081467  96.3482037
  89.1334644  68.7583901  96.5348523 100.8520809  67.3659540  92.2532162
 100.3367432  68.1364144  92.4920549 100.5798117  66.6924676  92.8765223
  98.4367920  62.2109240  97.3117400  97.5809516  61.8216091  97.1323039
  98.8494871  62.2901201  96.4517186  99.9667066  59.7455584 101.7108960
  99.4631862  59.7085719 100.8976765 100.2597673  60.6548326 101.7705617
  96.2109952  59.8294313 100.7175142  97.0762949  59.6337122 100.3581031
  96.2787461  59.6004665 101.6444499 105.8255083  70.1191894  94.1885336
 105.0484526  69.7803054  93.7440498 106.5046564  70.1244517  93.5140301
 100.6407112  65.2386632  94.0791943 100.3357247  65.5532781  94.9302086
 101.5937554  65.3168052  94.1219276  99.0853544  71.3976855  95.7284897
  98.5574905  70.6629615  95.4158135  98.5841046  72.1751531  95.4824866
 104.0646390  69.5925875 100.8451943 103.4070064  70.2825137 100.9332072
 104.8686789  69.9822307 101.1885930  93.8172271  62.0596521  98.0891509
  94.3916023  61.8371703  97.3564702  94.4043254  62.1285216  98.8420110
 102.8751848  67.9470248  98.8955885 103.3883730  68.5800240  99.3977595
 103.5253072  67.3471444  98.5299245  94.1441858  64.0900982  92.1087394
  93.3079171  64.4275669  92.4296669  94.0046628  63.9549962  91.1714531
  96.1194939  58.9337770  96.8166578  95.4659351  58.6186787  96.1923193
  96.0775413  58.3113511  97.5426401  97.2306144  69.2157065  88.7319870
  96.3233206  68.9846319  88.9311019  97.7277176  68.4194684  88.9193852
 100.1374223  77.9254572  91.6516556  99.4635921  78.2286269  92.2601514
 100.5240045  78.7283653  91.3022013  99.3532679  65.4219704 101.1414226
  98.4355241  65.6434651 100.9835914  99.7692823  65.4966014 100.2825933
 100.1367727  66.8211119  96.2716906 100.8839546  67.3332517  95.9624028
 100.4059317  66.4995172  97.1321300  98.4094377  69.3169660  93.2543860
  97.5005597  69.0328693  93.3516330  98.4389461  69.7368739  92.3947167
 103.6413645  72.9276250  97.0235028 103.1875972  72.0867159  97.0800218
 103.0107611  73.5637648  97.3609808 102.5846564  63.8568236  98.2535695
 101.8469321  63.3445622  98.5845938 102.8373338  63.4168617  97.4418972
 102.0846584  74.7652746  97.9584846 102.3769558  75.3257803  97.2397212
 102.5945204  75.0581307  98.7138005 102.6858192  56.6344488  98.8477465
 102.9917068  55.7741851  98.5603380 103.4110796  57.2262108  98.6476458
  88.9782548  67.0375174  97.2359063  88.7806947  66.4444535  96.5110129
  88.4229212  66.7327384  97.9535001  96.9579271  66.9298281  99.3553656
  97.0127881  65.9772117  99.2796132  96.1470473  67.0857720  99.8394954
  98.1070465  70.8578404  90.5931939  97.6689895  70.1414263  90.1337576
  98.8480906  71.0854519  90.0317030  94.8971631  65.5475340  97.1144035
  94.0839497  65.8469511  97.5209227  95.3930625  65.1531029  97.8318517
  97.0480209  75.5433097  99.0478299  97.0056388  75.7693944  98.1186831
  97.9642908  75.3096472  99.1964100 100.4945843  66.0117165 105.9458928
 100.8495231  66.2388638 106.8053394 101.1417974  66.3435542 105.3236184
 106.2243580  69.1335601  96.6508257 106.0861478  69.3237197  95.7229447
 105.8679799  69.8954984  97.1076309  94.3885706  63.1193696 102.7305269
  95.0285085  62.9782455 102.0328233  93.5563237  62.8328209 102.3543871
 106.2512959  71.2012128 101.6619529 106.6849466  71.1087417 102.5102583
 106.9644540  71.1769628 101.0239545  95.1646010  72.4196126  98.8440262
  95.9586608  71.9246447  98.6422837  94.4537702  71.8913989  98.4807968
  99.9840854  74.8014222 103.1952630 100.0377877  75.3705158 103.9630345
  99.1155636  74.9716107 102.8306667  91.4728773  66.5639208  94.9200015
  90.5426361  66.5023664  95.1369977  91.5686245  66.0415161  94.1236656
  91.3914322  63.0894021  97.5078256  91.6521140  64.0039354  97.3987417
  92.2131495  62.6218463  97.6574869  92.8639248  64.5031778 104.6777081
  93.5362301  64.2949140 104.0289730  92.0369034  64.3053864 104.2382313
 107.1128509  71.2435828 104.1952414 107.3064399  72.1481639 104.4411689
 107.0129127  70.7843248 105.0290999  98.7664820  61.1293719 106.6942742
  98.1192735  61.8283669 106.6007218  99.5365835  61.5629863 107.0618990
 102.1743618  71.3942571 109.7693295 102.0229124  71.1653123 108.8523379
 102.1648297  72.3513173 109.7824640  98.9428954  68.9674484 104.7539561
  99.8721014  69.1185644 104.5808529  98.5219984  69.0558505 103.8988208
  97.7417286  72.9925148 102.5238099  97.6028372  72.6243933 103.3964037
  96.9531882  73.5072788 102.3522057  98.3365438  78.0934245  93.8663636
  98.5117194  77.6222288  94.6809258  97.6498226  78.7200011  94.0944896
  99.2922501  72.3706751  99.9126937  98.9572334  72.3307521 100.8084587
  98.7926447  71.7051467  99.4397347  93.2666745  67.7774381 105.4379518
  93.1286543  67.0454620 106.0391057  94.1771668  67.6883281 105.1563706
 102.2281693  69.7162785  90.1863996 101.6110863  68.9909614  90.0897049
 101.7598181  70.4772146  89.8431071  95.8949046  67.4894340 104.9263198
  96.6048664  66.8487533 104.8849816  95.8518354  67.7407235 105.8489378
 103.8835824  74.4261694 107.8469777 103.8248370  73.7420914 107.1800360
 104.2855343  75.1680684 107.3950403  94.6077980  64.4759558 106.7458837
  94.0715337  64.0250297 107.3980433  94.0194688  64.6105467 106.0029301
  92.9026523  81.2423608 100.6403496  93.1423121  81.8742132 101.3182514
  92.0595720  80.8911648 100.9268855  94.0180239  63.9348210  89.3085301
  93.1409705  63.8137010  88.9447547  94.4937992  63.1434288  89.0564189
 103.8853232  72.3901278 106.0783757 102.9980010  72.0527199 106.2010155
 104.4551783  71.6584309 106.3152522  85.5382379  68.7225369  99.4026808
  86.2253419  68.4087099  98.8147823  85.3830507  69.6266734  99.1294059
  90.3417101  63.6115566 103.8311832  90.2575290  63.0041236 103.0962242
  89.5199807  64.1024584 103.8321328  97.4154385  77.0502730 103.0445000
  97.3424556  77.8557702 103.5564304  96.9731778  77.2494696 102.2193021
  97.2044165  76.2874500  96.5547821  96.4211687  76.8296180  96.6486046
  97.9036910  76.8048480  96.9542062 100.5140815  62.0969130  99.1982027
 101.0109514  61.3439092  98.8783097  99.7427796  62.1333446  98.6325236
 108.3670572  67.8009495 100.8400318 108.3560448  68.6834210 100.4694251
 107.4987952  67.4481046 100.6454855  99.8753069  76.9489564 105.2003158
 100.5881041  77.5837029 105.1279060  99.3843097  77.0453430 104.3843160
 101.5970595  70.8540817  96.7720450 100.6626874  70.9742279  96.6025154
 101.7747264  69.9513284  96.5080460  97.0975783  64.2386513  98.9253711
  96.7273571  63.6857553  99.6134617  97.5934876  63.6344646  98.3728711
 104.9843147  66.6958136  97.3070484 105.4503599  67.5286128  97.2330787
 105.4350647  66.2303118  98.0115743  94.9264982  74.6984008 106.0208729
  95.6274442  75.3320490 106.1738123  94.4560097  75.0398739 105.2604368
 103.0519378  73.0401957  94.3056636 103.3279222  72.9258552  95.2150510
 102.1823877  72.6419442  94.2668809 102.9559810  59.0638723 101.3461386
 102.0422889  59.2942950 101.5143592 103.3852911  59.1477167 102.1975418
 102.7266268  67.2528615 103.8461280 102.0737718  67.5004522 103.1913732
 103.1046648  66.4392753 103.5123757  99.6873442  77.2888308  97.9489450
  99.8695836  76.4709964  98.4117202 100.5106428  77.5056000  97.5114340
 100.0215607  76.2156493  95.2104498 100.5503374  75.7048948  94.5974660
 100.2843827  75.8999023  96.0750031  98.7753841  67.9948426 110.3327317
  98.0994478  67.8942555 111.0029692  99.5981475  67.8387640 110.7963314
  90.5232700  74.2320363 102.9539832  91.1086137  73.4864050 103.0867736
  90.3257539  74.5424319 103.8376496  93.3771355  77.2671610  97.9702274
  92.7081731  77.7517738  97.4866314  93.2384225  77.5140830  98.8845653
  85.1150355  66.8025963 101.6744275  85.1534454  66.2689553 102.4681393
  84.6090648  66.2761168 101.0555252  97.5176624  79.3015353 104.5684933
  98.0694932  79.4646975 105.3334018  97.8582817  79.8919791 103.8964957
  92.4941117  61.6490503 105.1706817  92.5582444  62.5105334 104.7584215
  92.4308237  61.0364505 104.4379176  91.9693390  63.7213636 108.8179852
  92.5965428  63.3390713 109.4317376  91.1121309  63.5027838 109.1835544
  88.7458932  65.5290065  94.7498206  89.0412374  64.6200743  94.6965260
  87.8446968  65.5077804  94.4279209 100.6545011  77.2497329 101.5548615
 100.5296151  76.4487069 101.0459560 101.3124102  77.7443522 101.0662585
  92.2753179  63.6046062 100.7325755  91.5539765  64.2182029 100.5933228
  93.0646435  64.1403826 100.6542401 102.7179920  75.0506349 103.1828165
 101.7710255  74.9311700 103.1106492 103.0662693  74.1628847 103.2654426
  95.0779493  60.9400488 107.0066407  95.6013895  61.1862785 107.7692716
  94.8591826  61.7720523 106.5869544  90.4746774  63.2104163  94.8737532
  90.1459480  62.3301542  94.6912637  90.8286145  63.1551831  95.7613921
  99.7226353  74.8459065  99.3832517  99.5751315  73.9175773  99.5640087
 100.5479846  74.8679156  98.8989592  93.5888597  63.4977132  95.2413009
  93.9284670  64.0263054  94.5191618  94.0360718  63.8357539  96.0171576
 103.3260475  75.6687624 100.4697390 104.2507022  75.4630485 100.3321841
 103.1575778  75.4204025 101.3786731  96.2832038  61.8814183 104.6916077
  95.9428858  61.0821996 105.0936757  95.5771044  62.1815894 104.1192910
  96.9348510  58.9663496 103.1443400  97.7574579  58.4923974 103.0222291
  97.1786573  59.7453979 103.6442087  95.5756744  61.9951754  93.4406302
  96.2965107  62.3733007  92.9370019  94.9522048  62.7140631  93.5441280
  99.7187867  62.6996903  94.3764634  99.9351482  63.5821541  94.0753462
  99.2381934  62.3083116  93.6470276  94.4587089  65.6582616 100.9535379
  94.3131669  65.9722919 101.8459660  93.9812292  66.2767517 100.4006278
  96.3183471  62.6485164 101.0016268  96.3045040  61.7526257 100.6648566
  97.0355900  62.6555828 101.6354555  98.1709602  63.0822504 103.0469396
  97.9127380  64.0039575 103.0453726  97.6394643  62.6852939 103.7369860
 103.1155791  76.1873291  95.8259481 103.2892668  75.6219714  95.0733334
 103.6084682  76.9874186  95.6438971  88.9332751  68.1987961 103.8923040
  88.3886219  68.9747769 104.0243314  89.8112101  68.5458765 103.7342162
  95.7220367  61.5299544  96.2703839  95.8436279  60.6016191  96.4694726
  95.4322410  61.5438230  95.3582154  98.5911558  59.2154455  99.4070558
  98.6133255  59.2793788  98.4522538  99.0079617  58.3758964  99.6011065
 108.9695182  68.9509714  97.4449781 109.4126328  68.2017040  97.0468904
 108.0921692  68.9419851  97.0623513 104.1030963  75.5040056  92.9256380
 104.7981868  76.1246749  93.1443694 104.4454114  74.6535407  93.2008757
  89.7198773  67.3257857 106.7853197  88.9780509  67.4740492 107.3717827
  89.3991517  67.5866122 105.9219946 106.0022387  72.9539761  94.4543710
 106.5273711  73.2927034  93.7293030 105.9144739  72.0186777  94.2706845
  97.6642435  76.8673835 106.5833587  97.9729562  76.6222982 107.4556287
  98.4617917  77.0720474 106.0952457  97.6863047  79.0211745  98.8138964
  97.2468038  78.5288123  99.5071820  98.4371164  78.4784712  98.5731039
  90.1655386  75.2123286  98.8163592  90.9913406  74.9127057  98.4362235
  89.8149438  74.4430908  99.2653380  95.1336919  74.5649754 100.8861265
  94.5116929  73.9020459 100.5863493  95.8041786  74.5910886 100.2034913
  88.3663991  73.1309612  99.7752525  87.5295900  72.7031786  99.5936526
  88.3387637  73.3242055 100.7123316  95.2061447  63.0431542 110.4793771
  95.2549602  63.9193665 110.0971541  95.7483961  62.5008935 109.9065414
 105.8114168  70.4365131 107.0727637 105.8612173  70.2715139 108.0143160
 105.7028091  69.5692390 106.6825518  94.6950426  73.1153677  94.3619726
  94.8438547  73.7989142  93.7086398  95.5016870  73.0958767  94.8769181
 103.1017930  66.4196059 108.3886944 104.0027793  66.2802524 108.0970941
 103.1765905  66.5850514 109.3285121  97.4360735  63.7962914 107.2340130
  96.5664045  64.0896480 106.9622718  97.6720216  64.3803359 107.9547394
 108.5128047  70.4214953  99.8372229 109.3474938  70.8604757 100.0009789
 108.6487176  69.9453606  99.0180474 105.5619553  67.9794688 105.7849716
 106.0373674  68.1722334 104.9768568 104.6385118  68.0353873 105.5393100
  92.4503059  69.1418855  95.3680795  92.2049101  68.2381185  95.5661005
  92.6198974  69.1436005  94.4260273 100.1399769  60.0142531 104.7505550
 100.6581713  60.7503558 104.4252039  99.7854902  60.3206524 105.5852309
  91.7198707  64.8747212  92.8666956  91.0267952  64.9491567  92.2106992
  91.4750459  64.1107556  93.3888473 100.3912363  56.4342814 100.2706447
 100.6714117  55.7666003 100.8966873 101.1762970  56.6271909  99.7581111
  98.1945832  75.6101808  91.8331473  97.6219799  76.2291995  91.3801945
  98.7678626  76.1601169  92.3671395 104.2621222  64.8560448 104.0178022
 105.2138645  64.9558545 104.0390246 104.0924672  64.0638716 104.5276106
 102.2835601  61.9416031 104.2037423 101.6885533  62.2221044 103.5083912
 101.9985298  62.4309932 104.9754164 101.4143092  75.8938958  92.9640055
 102.3473765  75.8284519  93.1672931 101.3266304  76.7295225  92.5054588
 104.0431108  75.2104828  89.9244003 103.9644740  74.8764692  90.8179761
 104.8640775  75.7026596  89.9235475 106.7409300  68.0766567 103.1320322
 106.7085620  67.1382568 103.3180005 107.3509923  68.1550604 102.3986146
  98.5792630  66.9462620  89.1747526  99.5251735  66.8168828  89.2435944
  98.2006875  66.2077282  89.6516954 106.8903788  64.8677611 103.1778605
 106.3742837  64.0836067 102.9908534 107.7743737  64.5396327 103.3425124
 104.5514515  58.6118626  99.1374417 104.3539336  58.3033715 100.0217749
 105.1614220  59.3380265  99.2672347 112.5585849  69.1382574 102.2726358
 113.2889238  68.8767862 102.8334062 111.9492795  68.4011296 102.3128426
 110.6401146  67.2790437 102.8700810 109.9134310  67.1446402 102.2617301
 110.2248433  67.5867265 103.6757528  98.4631323  70.9980366 110.6348183
  99.3834332  71.1758965 110.8288229  98.4280906  70.0536412 110.4827882
  96.7635548  64.8712597  89.1102411  95.8567003  64.5745709  89.1865124
  97.0411529  64.5742415  88.2436697  87.6813488  66.1918960  99.5601457
  87.3616272  65.3384268  99.2675831  87.1346916  66.4067538 100.3159425
  91.4593395  68.9081401 103.2770964  91.6779405  69.8398509 103.2958998
  91.8719169  68.5489376 104.0625768  98.3797613  59.4149486  95.2646652
  97.5698342  59.0696571  95.6401898  99.0682030  59.1057030  95.8534264
 100.3088162  58.4927533  96.8870949 100.8619200  58.9122987  97.5460972
 100.5458248  57.5663281  96.9293905  96.3321261  64.4814607 112.6673713
  96.2317988  65.4308964 112.5985804  96.1142803  64.1532846 111.7949783
  95.5334332  61.7299532  89.2514390  96.3953496  62.0554430  89.5110207
  95.7184676  60.9431028  88.7387456  87.5501748  69.8121872 101.5294579
  86.8565219  69.3975824 101.0164533  88.2974739  69.8542408 100.9327998
 103.6866969  60.6028058  96.3949613 103.1065638  61.2612862  96.0127665
 103.4202901  59.7805403  95.9837031 102.1370535  60.0033116  98.5970933
 102.6370313  60.1149651  97.7885252 102.7806143  59.6994169  99.2371742
  96.1952531  67.9111746 111.4838774  95.7119613  68.7112106 111.6902663
  96.2813470  67.9219691 110.5306218  89.4638490  69.7440125  99.4060594
  89.4409179  69.8427813  98.4542477  89.7739127  70.5905276  99.7277760
  92.1225868  71.8016280 103.5207208  93.0769122  71.7700223 103.4537140
  91.9238392  71.3406904 104.3357434  92.7125250  70.3717396 106.0878006
  93.5318139  70.8661475 106.1112843  92.9862058  69.4549365 106.0595573
 102.4691847  62.7628149  95.4505961 101.5817702  63.0477799  95.2326156
 102.8845836  62.6021912  94.6033238 105.8206383  62.7874670  99.1660301
 106.5966773  63.2771122  99.4384917 105.0954517  63.2132724  99.6232170
 108.2578941  63.5002289 100.2234241 108.8523432  63.2598025  99.5127549
 108.3305525  62.7809420 100.8507777  90.4776097  77.3435900 100.5377406
  90.3430565  76.5836301  99.9715404  90.0608159  78.0676800 100.0706195
 101.6135060  72.5272823  89.5453981 102.3170910  72.7322826  90.1611637
 100.8897709  73.0949585  89.8103065 102.4432870  68.2782685  95.6656251
 102.3868072  68.7351236  94.8263884 102.9961213  67.5173369  95.4879094
 106.2537676  64.0672417  96.4906371 105.9974611  63.6669052  97.3214579
 105.6290544  64.7816211  96.3656510 110.5650014  66.8068490  98.9977662
 110.0049572  66.8761679  99.7709224 109.9593518  66.6309474  98.2777159
  93.6345223  78.2405217 100.7495849  93.5177607  79.1850649 100.6474539
  92.8137669  77.9378778 101.1381648 103.5221758  72.9655353  91.5952441
 104.3567361  72.5336551  91.4129916 103.3606100  72.7937366  92.5229336
 103.1767650  69.4687466  92.9608781 103.1216453  69.3031737  92.0197225
 102.5513705  70.1763499  93.1170970  87.9660165  64.7055530 106.7870203
  88.6119028  64.1954484 107.2757428  87.7577316  65.4424212 107.3613628
  96.4863775  58.9695575  92.5394099  96.4742445  59.9137415  92.6962370
  97.3787197  58.7865720  92.2453560  94.6599737  78.8933479 103.9651777
  95.5626984  78.9257089 104.2818272  94.4337107  77.9633930 103.9798113
  96.4153339  77.6464465 100.6261856  95.4648970  77.6466327 100.5126228
  96.7185825  76.8997200 100.1097890 100.3015895  55.5638352  96.7940036
  99.5348290  55.0096838  96.9396718 100.7126600  55.6360220  97.6554187
  92.3057656  61.8523147 110.8845217  93.1689117  61.4959952 111.0948542
  91.7323066  61.5137042 111.5720621 104.8182555  85.2887908  97.6166034
 104.2547420  85.1977845  96.8482322 104.7034950  84.4687813  98.0968526
 102.3646987  86.7839100 100.4550254 103.1568278  86.4429925 100.0396554
 102.6043637  86.8934075 101.3752408 110.3982113  88.9558876  92.9280499
 109.7470093  89.5412956  92.5414512 111.1926476  89.4865071  92.9875536
 104.3237740  86.0448013  93.3267633 105.0968616  85.4977000  93.1880509
 104.6763139  86.9092262  93.5382094 106.6604018  82.2040679  90.9586083
 106.9129539  81.6822201  90.1969546 105.7228577  82.0406825  91.0612767
 111.7047301  81.2076458  98.7660826 112.4910390  80.7895881  98.4151243
 111.9686005  82.1122550  98.9342475 111.8757378  86.6449308  93.4649483
 111.2403211  86.7183934  94.1770388 111.5454785  87.2342907  92.7868562
 106.3800307  84.1068785  93.1610458 106.2636565  83.4313689  93.8291542
 106.4902567  83.6201159  92.3442611 108.7231848  83.5678932  96.8657147
 108.3590055  83.0409553  97.5770069 109.5798964  83.1777401  96.6923633
 108.3637335  78.5968832  91.8618496 108.5311737  79.4649068  92.2288967
 108.1734504  78.7596114  90.9379785 104.5725150  83.5099608  99.5621030
 103.6475646  83.3775822  99.7698722 104.8209563  84.2893827 100.0590973
 108.3426556  81.0526490  92.8465162 108.2226181  81.4983540  93.6850643
 107.6479144  81.4011807  92.2878701 101.9333961  83.1532881 100.3964820
 102.0626342  83.4067360 101.3104231 101.2531412  83.7460589 100.0769475
 114.0411622  81.5247963  93.6745497 114.9529478  81.7575349  93.4993194
 113.5321269  82.1085007  93.1120575 111.3847597  77.7005999 101.9235357
 110.5232076  77.9987252 102.2152095 111.4110031  77.9176398 100.9916390
 108.2009166  86.2448189  98.3309163 108.6647512  86.5235892  97.5413786
 107.9365964  85.3431634  98.1482254 107.1378052  82.3671342  95.1398728
 107.8402096  82.8192385  95.6072655 106.8058681  81.7255160  95.7678621
 100.8803386  80.6254894 100.4415862 100.0902440  80.8812423  99.9655972
 101.3714634  81.4403232 100.5467902 102.8318132  80.9899474  97.3999338
 102.0349295  81.1018168  97.9182834 102.6043724  81.3286126  96.5340229
  99.1641089  80.8785385 102.8730853  99.4149128  81.7632395 103.1388429
  99.7000638  80.6989986 102.1005944 108.3771817  89.1812284  95.2160833
 108.2417492  90.0263820  95.6445681 108.9181629  89.3831562  94.4526767
 101.8301214  86.6987722  95.7888759 102.3425735  87.4930973  95.9394323
 102.4823927  86.0014013  95.7222360 103.6396099  89.8153479  97.8711512
 103.8162727  90.7371443  97.6832496 104.4352932  89.5011898  98.3005891
 111.7264280  72.7042846 103.7459727 111.3828550  73.5944488 103.6698837
 112.0943243  72.5144504 102.8829312  99.7950131  85.0276377  96.5648329
 100.6325353  85.4373385  96.3482037  99.9728399  84.0875819  96.5348523
 111.6914563  82.6951457  92.2532162 111.1761187  83.4656062  92.4920549
 111.4191872  82.0216593  92.8765223 109.2761674  77.5401158  97.3117400
 108.4203270  77.1508008  97.1323039 109.6888626  77.6193119  96.4517186
 110.8060821  75.0747501 101.7108960 110.3025616  75.0377636 100.8976765
 111.0991428  75.9840244 101.7705617 107.0503707  75.1586231 100.7175142
 107.9156703  74.9629040 100.3581031 107.1181216  74.9296583 101.6444499
 116.6648837  85.4483812  94.1885336 115.8878280  85.1094971  93.7440498
 117.3440318  85.4536435  93.5140301 111.4800866  80.5678549  94.0791943
 111.1751002  80.8824698  94.9302086 112.4331308  80.6459969  94.1219276
 109.9247298  86.7268773  95.7284897 109.3968660  85.9921532  95.4158135
 109.4234801  87.5043449  95.4824866 104.6566026  77.3888439  98.0891509
 105.2309778  77.1663620  97.3564702 105.2437008  77.4577133  98.8420110
 104.9835613  79.4192900  92.1087394 104.1472925  79.7567586  92.4296669
 104.8440382  79.2841880  91.1714531 106.9588693  74.2629688  96.8166578
 106.3053106  73.9478705  96.1923193 106.9169168  73.6405428  97.5426401
 108.0699898  84.5448983  88.7319870 107.1626960  84.3138236  88.9311019
 108.5670930  83.7486602  88.9193852 110.9767977  93.2546490  91.6516556
 110.3029676  93.5578187  92.2601514 111.3633799  94.0575570  91.3022013
 110.1926434  80.7511621 101.1414226 109.2748995  80.9726568 100.9835914
 110.6086577  80.8257932 100.2825933 110.9761482  82.1503037  96.2716906
 111.7233301  82.6624434  95.9624028 111.2453071  81.8287090  97.1321300
 109.2488132  84.6461578  93.2543860 108.3399351  84.3620611  93.3516330
 109.2783216  85.0660656  92.3947167 113.4240319  79.1860153  98.2535695
 112.6863076  78.6737539  98.5845938 113.6767092  78.7460535  97.4418972
 113.5251946  71.9636405  98.8477465 113.8310823  71.1033769  98.5603380
 114.2504551  72.5554025  98.6476458  99.8176302  82.3667092  97.2359063
  99.6200702  81.7736453  96.5110129  99.2622966  82.0619302  97.9535001
 107.7973026  82.2590198  99.3553656 107.8521636  81.3064035  99.2796132
 106.9864228  82.4149637  99.8394954 108.9464220  86.1870321  90.5931939
 108.5083649  85.4706180  90.1337576 109.6874660  86.4146436  90.0317030
 105.7365386  80.8767258  97.1144035 104.9233251  81.1761429  97.5209227
 106.2324380  80.4822947  97.8318517 105.2279460  78.4485614 102.7305269
 105.8678840  78.3074373 102.0328233 104.3956991  78.1620127 102.3543871
 106.0039764  87.7488044  98.8440262 106.7980363  87.2538364  98.6422837
 105.2931457  87.2205907  98.4807968 102.3122528  81.8931126  94.9200015
 101.3820116  81.8315581  95.1369977 102.4080000  81.3707079  94.1236656
 102.2308077  78.4185939  97.5078256 102.4914894  79.3331272  97.3987417
 103.0525249  77.9510381  97.6574869 103.7033002  79.8323696 104.6777081
 104.3756056  79.6241058 104.0289730 102.8762789  79.6345782 104.2382313
 109.1759192  93.4226162  93.8663636 109.3510948  92.9514206  94.6809258
 108.4891980  94.0491929  94.0944896 113.0675447  85.0454703  90.1863996
 112.4504618  84.3201531  90.0897049 112.5991936  85.8064063  89.8431071
 104.8573993  79.2640127  89.3085301 103.9803459  79.1428928  88.9447547
 105.3331746  78.4726206  89.0564189  96.3776133  84.0517287  99.4026808
  97.0647173  83.7379017  98.8147823  96.2224262  84.9558652  99.1294059
 101.1810855  78.9407484 103.8311832 101.0969044  78.3333153 103.0962242
 100.3593562  79.4316502 103.8321328 111.3534569  77.4261047  99.1982027
 111.8503269  76.6731010  98.8783097 110.5821551  77.4625364  98.6325236
 112.4364350  86.1832734  96.7720450 111.5020629  86.3034197  96.6025154
 112.6141018  85.2805201  96.5080460 107.9369538  79.5678430  98.9253711
 107.5667325  79.0149471  99.6134617 108.4328630  78.9636564  98.3728711
 115.8236901  82.0250054  97.3070484 116.2897353  82.8578045  97.2330787
 116.2744402  81.5595035  98.0115743 113.8913132  88.3693875  94.3056636
 114.1672976  88.2550470  95.2150510 113.0217631  87.9711360  94.2668809
 113.7953564  74.3930641 101.3461386 112.8816644  74.6234868 101.5143592
 114.2246665  74.4769085 102.1975418  95.9544109  82.1317880 101.6744275
  95.9928209  81.5981471 102.4681393  95.4484402  81.6053086 101.0555252
 103.3334872  76.9782421 105.1706817 103.3976198  77.8397252 104.7584215
 103.2701992  76.3656423 104.4379176  99.5852687  80.8581983  94.7498206
  99.8806128  79.9492661  94.6965260  98.6840723  80.8369722  94.4279209
 103.1146934  78.9337979 100.7325755 102.3933520  79.5473947 100.5933228
 103.9040190  79.4695744 100.6542401 101.3140529  78.5396080  94.8737532
 100.9853235  77.6593459  94.6912637 101.6679899  78.4843749  95.7613921
 104.4282352  78.8269050  95.2413009 104.7678424  79.3554971  94.5191618
 104.8754472  79.1649456  96.0171576 107.1225792  77.2106101 104.6916077
 106.7822613  76.4113914 105.0936757 106.4164799  77.5107812 104.1192910
 107.7742264  74.2955413 103.1443400 108.5968334  73.8215891 103.0222291
 108.0180328  75.0745897 103.6442087 106.4150499  77.3243672  93.4406302
 107.1358861  77.7024924  92.9370019 105.7915803  78.0432548  93.5441280
 110.5581622  78.0288821  94.3764634 110.7745236  78.9113459  94.0753462
 110.0775689  77.6375034  93.6470276 105.2980843  80.9874534 100.9535379
 105.1525424  81.3014837 101.8459660 104.8206047  81.6059434 100.4006278
 107.1577226  77.9777082 101.0016268 107.1438795  77.0818175 100.6648566
 107.8749654  77.9847746 101.6354555 109.0103357  78.4114422 103.0469396
 108.7521134  79.3331493 103.0453726 108.4788397  78.0144857 103.7369860
  99.7726505  83.5279878 103.8923040  99.2279973  84.3039686 104.0243314
 100.6505855  83.8750683 103.7342162 106.5614122  76.8591462  96.2703839
 106.6830033  75.9308108  96.4694726 106.2716164  76.8730148  95.3582154
 109.4305312  74.5446373  99.4070558 109.4527009  74.6085706  98.4522538
 109.8473371  73.7050881  99.6011065 114.9424718  90.8331974  92.9256380
 115.6375623  91.4538666  93.1443694 115.2847868  89.9827325  93.2008757
 116.8416141  88.2831679  94.4543710 117.3667465  88.6218952  93.7293030
 116.7538494  87.3478694  94.2706845 101.0049141  90.5415203  98.8163592
 101.8307161  90.2418975  98.4362235 100.6543193  89.7722826  99.2653380
  99.2057746  88.4601530  99.7752525  98.3689654  88.0323704  99.5936526
  99.1781391  88.6533973 100.7123316 105.5344181  88.4445595  94.3619726
 105.6832301  89.1281059  93.7086398 106.3410624  88.4250685  94.8769181
 103.2896814  84.4710772  95.3680795 103.0442856  83.5673102  95.5661005
 103.4592728  84.4727923  94.4260273 102.5592461  80.2039130  92.8666956
 101.8661706  80.2783485  92.2106992 102.3144213  79.4399474  93.3888473
 111.2306118  71.7634731 100.2706447 111.5107872  71.0957920 100.8966873
 112.0156725  71.9563827  99.7581111 109.0339586  90.9393725  91.8331473
 108.4613553  91.5583912  91.3801945 109.6072380  91.4893087  92.3671395
 112.2536846  91.2230875  92.9640055 113.1867519  91.1576437  93.1672931
 112.1660059  92.0587142  92.5054588 114.8824863  90.5396746  89.9244003
 114.8038494  90.2056609  90.8179761 115.7034530  91.0318514  89.9235475
 109.4186385  82.2754538  89.1747526 110.3645490  82.1460746  89.2435944
 109.0400630  81.5369200  89.6516954 115.3908269  73.9410544  99.1374417
 115.1933091  73.6325632 100.0217749 116.0007975  74.6672183  99.2672347
 107.6029302  80.2004514  89.1102411 106.6960757  79.9037627  89.1865124
 107.8805283  79.9034332  88.2436697  98.5207242  81.5210878  99.5601457
  98.2010027  80.6676186  99.2675831  97.9740671  81.7359456 100.3159425
 109.2191368  74.7441404  95.2646652 108.4092096  74.3988489  95.6401898
 109.9075785  74.4348948  95.8534264 111.1481916  73.8219451  96.8870949
 111.7012955  74.2414904  97.5460972 111.3852002  72.8955199  96.9293905
 106.3728087  77.0591450  89.2514390 107.2347251  77.3846348  89.5110207
 106.5578431  76.2722946  88.7387456  98.3895502  85.1413789 101.5294579
  97.6958974  84.7267742 101.0164533  99.1368493  85.1834326 100.9327998
 114.5260723  75.9319976  96.3949613 113.9459392  76.5904780  96.0127665
 114.2596656  75.1097321  95.9837031 112.9764289  75.3325034  98.5970933
 113.4764068  75.4441568  97.7885252 113.6199897  75.0286087  99.2371742
 100.3032245  85.0732043  99.4060594 100.2802933  85.1719730  98.4542477
 100.6132881  85.9197194  99.7277760 113.3085601  78.0920066  95.4505961
 112.4211456  78.3769717  95.2326156 113.7239590  77.9313830  94.6033238
 116.6600137  78.1166587  99.1660301 117.4360527  78.6063040  99.4384917
 115.9348271  78.5424642  99.6232170 112.4528815  87.8564741  89.5453981
 113.1564665  88.0614744  90.1611637 111.7291463  88.4241503  89.8103065
 113.2826625  83.6074602  95.6656251 113.2261826  84.0643154  94.8263884
 113.8354967  82.8465287  95.4879094 117.0931431  79.3964334  96.4906371
 116.8368365  78.9960970  97.3214579 116.4684299  80.1108128  96.3656510
 114.3615512  88.2947270  91.5952441 115.1961116  87.8628469  91.4129916
 114.1999855  88.1229284  92.5229336 114.0161404  84.7979384  92.9608781
 113.9610208  84.6323655  92.0197225 113.3907459  85.5055417  93.1170970
 107.3257530  74.2987493  92.5394099 107.3136199  75.2429333  92.6962370
 108.2180952  74.1157638  92.2453560 111.1409649  70.8930269  96.7940036
 110.3742045  70.3388756  96.9396718 111.5520354  70.9652138  97.6554187
 115.6967748  94.5932045  89.3085301 114.8197214  94.4720846  88.9447547
 116.1725501  93.8018123  89.0564189 118.4423057  95.5296432  89.1102411
 117.5354512  95.2329545  89.1865124 118.7199038  95.2326250  88.2436697
 117.2121841  92.3883367  89.2514390 118.0741005  92.7138266  89.5110207
 117.3972185  91.6014863  88.7387456 118.1651284  89.6279410  92.5394099
 118.1529954  90.5721250  92.6962370 119.0574706  89.4449556  92.2453560
  51.9064677  -5.8167335  83.2200600  51.8288706  -4.8659509  83.2989081
  51.3026320  -6.1621462  83.8775527  49.5451506  -3.0681941  87.3648802
  49.7848105  -2.4363416  88.0427821  48.7020703  -3.4193901  87.6514162
  54.1601607  -5.0090195  91.2930239  54.7119915  -4.8458573  92.0579324
  54.5007801  -4.4185757  90.6210264  47.1201080  -6.9669648  87.2622713
  46.9855548  -7.7269247  86.6960711  46.7033143  -6.2428748  86.7951502
  50.2770206  -6.0700331  87.4741155  50.1602590  -5.1254899  87.3719846
  49.4562653  -6.3726770  87.8626955  51.3024720  -5.4172069  90.6897084
  52.2051967  -5.3848459  91.0063579  51.0762090  -6.3471618  90.7043420
  61.4607538   0.9782360  84.3411340  60.8972403   0.8872297  83.5727628
  61.3459933   0.1582265  84.8213833  66.0840505   0.2781735  94.3100655
  66.0729146  -0.1165466  93.4381159  66.2461145  -0.4552192  94.9034426
  59.0071970   2.4733552  87.1795561  59.7993262   2.1324376  86.7641860
  59.2468620   2.5828527  88.0997714  67.0407097   4.6453328  79.6525805
  66.3895076   5.2307408  79.2659819  67.8351459   5.1759523  79.7120843
  60.9662724   1.7342465  80.0512940  61.7393600   1.1871452  79.9125815
  61.3188123   2.5986714  80.2627401  62.8047766   3.0618847  93.2579839
  62.5137632   3.9664478  93.1426505  63.4404751   3.1035375  93.9723909
  63.7303973   0.4395696  89.8481199  64.3267545   0.2151718  89.1338162
  63.7878945  -0.3019559  90.4506646  68.5182362   2.3343760  80.1894790
  67.8828195   2.4078386  80.9015694  68.1879768   2.9237359  79.5113869
  63.0225290  -0.2036763  79.8855765  62.9061548  -0.8791860  80.5536849
  63.1327550  -0.6904389  79.0687918  67.7637651   2.7480263  90.2529633
  67.4638374   3.6505302  90.1445440  67.4188711   2.4812446  91.1050786
  61.2150133  -0.8005940  86.2866337  60.2900629  -0.9329726  86.4944029
  61.4634546  -0.0211721  86.7836279  58.5758944  -1.1572667  87.1210126
  58.7051325  -0.9038188  88.0349538  57.8956395  -0.5644959  86.8014781
  62.7458431   9.5124583  83.2200600  62.6682461  10.4632408  83.2989081
  62.1420075   9.1670456  83.8775527  63.4922033  -0.5062098  95.4379934
  64.2336718   0.0322946  95.1614758  62.7859019   0.1204191  95.5951486
  68.9677373   1.6367042  94.0352096  69.3760729   1.1949453  93.2906728
  68.2454634   1.0619670  94.2886289  69.2906188   2.1968233  87.7904385
  68.6615050   2.3613947  87.0880452  68.9031850   2.6109843  88.5615349
  73.1695419   3.1322671  85.1448748  72.4846458   3.5121572  84.5945782
  73.2539269   3.7417998  85.8780696  64.8434149   1.9342641  85.0554470
  65.3072495   2.2130344  84.2659092  64.5790948   1.0326086  84.8727560
  61.7358231   1.4814123  87.9934233  62.3059588   1.9101391  87.3551717
  62.3266342   1.1996707  88.6918419  57.5228369  -3.6850654  87.1661168
  56.7327423  -3.4293125  86.6901279  58.0139617  -2.8702316  87.2713209
  71.5392179   3.6554585  89.9166449  72.3609623   3.2534773  89.6349131
  71.5354582   3.5522819  90.8682565  59.4743115  -3.3206075  84.1244645
  58.6774278  -3.2087380  84.6428141  59.2468707  -2.9819422  83.2585536
  65.3048782   3.2038629  92.0727160  65.3693215   3.6659036  92.9085332
  64.5959706   2.5735994  92.2009470  55.8066072  -3.4320163  89.5976159
  56.0574111  -2.5473153  89.8633735  56.3425621  -3.6115562  88.8251251
  65.0196800   4.8706736  81.9406140  64.8842475   5.7158272  82.3690988
  65.5606613   5.0726014  81.1772074  58.4726198   2.3882174  82.5134065
  58.9850718   3.1825424  82.6639630  59.1248910   1.6908465  82.4467667
  60.2821082   5.5047930  84.5956818  60.4587711   6.4265895  84.4077802
  61.0777916   5.1906350  85.0251198  59.5673439  -2.4487438  94.4718982
  59.4526954  -3.3502180  94.7726080  58.7117957  -2.2023741  94.1203798
  66.6465277   5.4930303  96.0706482  66.2029131   4.7066681  95.7527387
  67.3082490   5.6809453  95.4050373  61.4052398   7.0226104  90.5967161
  61.9559823   6.8943168  89.8244155  60.5663874   7.3220993  90.2462053
  68.7446515   5.7733103  94.0987883  68.7264990   6.5941984  93.6068153
  69.6666435   5.6487178  94.3238025  65.2019569   3.2877232  94.9411392
  65.7347906   2.5265520  94.7110700  64.6733650   2.9950884  95.6835546
  56.4375114   0.7170828  83.2893636  57.2750336   1.1267837  83.0727343
  56.6153382  -0.2229729  83.2593830  66.5672281   2.4163225  82.4530204
  66.0393643   1.6815984  82.1403441  66.0659784   3.1937901  82.2070172
  64.7124882   0.2343435  75.4565177  63.8051943   0.0032688  75.6556326
  65.2095914  -0.5618946  75.6439158  67.6192960   8.9440942  78.3761863
  66.9454659   9.2472639  78.9846821  68.0058782   9.7470022  78.0267320
  65.8913115   0.3356030  79.9789167  64.9824334   0.0515062  80.0761637
  65.9208199   0.7555108  79.1192474  71.1232382   3.9462619  83.7480335
  70.6694710   3.1053529  83.8045525  70.4926349   4.5824018  84.0855115
  69.5665322   5.7839116  84.6830153  69.8588296   6.3444173  83.9642518
  70.0763942   6.0767677  85.4383312  56.4601285  -1.9438456  83.9604369
  56.2625685  -2.5369096  83.2355436  55.9047949  -2.2486246  84.6780308
  65.5889203   1.8764773  77.3177246  65.1508633   1.1600632  76.8582883
  66.3299644   2.1040888  76.7562337  64.5298947   6.5619467  85.7723606
  64.4875126   6.7880313  84.8432138  65.4461646   6.3282842  85.9209407
  73.7331697   2.2198497  88.3864836  74.1668204   2.1273786  89.2347890
  74.4463278   2.1955998  87.7484852  62.6464748   3.4382496  85.5685569
  63.4405346   2.9432816  85.3668144  61.9356440   2.9100359  85.2053274
  67.4659592   5.8200591  89.9197936  67.5196614   6.3891528  90.6875652
  66.5974374   5.9902476  89.5551973  58.9547511  -2.4174422  81.6445321
  58.0245099  -2.4789967  81.8615283  59.0504983  -2.9398470  80.8481963
  69.6562355   2.4128941  96.4938602  69.5047862   2.1839492  95.5768685
  69.6467035   3.3699542  96.5069947  66.4247692  -0.0139147  91.4784868
  67.3539752   0.1372013  91.3053835  66.0038722   0.0744874  90.6233515
  65.2236024   4.0111518  89.2483406  65.0847109   3.6430302  90.1209344
  64.4350620   4.5259157  89.0767363  65.8184176   9.1120614  80.5908942
  65.9935931   8.6408658  81.4054565  65.1316964   9.7386381  80.8190203
  66.7741239   3.3893121  86.6372243  66.4391071   3.3493891  87.5329893
  66.2745184   2.7237837  86.1642654  60.7485483  -1.2039249  92.1624825
  60.6105281  -1.9359011  92.7636364  61.6590406  -1.2930349  91.8809012
  69.7100430   0.7349155  76.9109303  69.0929601   0.0095983  76.8142356
  69.2416919   1.4958515  76.5676377  71.3654562   5.4448063  94.5715083
  71.3067108   4.7607283  93.9045666  71.7674081   6.1867053  94.1195709
  60.3845261  12.2609977  87.3648802  60.6241859  12.8928501  88.0427821
  59.5414457  11.9098017  87.6514162  71.3671969   3.4087647  92.8029063
  70.4798748   3.0713569  92.9255462  71.9370520   2.6770678  93.0397829
  53.0201117  -0.2588261  86.1272115  53.7072156  -0.5726531  85.5393130
  52.8649245   0.6453104  85.8539366  64.8973123   8.0689100  89.7690306
  64.8243294   8.8744071  90.2809611  64.4550516   8.2681065  88.9438328
  64.6862902   7.3060870  83.2793128  63.9030424   7.8482550  83.3731352
  65.3855648   7.8234849  83.6787369  67.3571806   7.9675934  91.9248465
  68.0699779   8.6023398  91.8524366  66.8661835   8.0639800  91.1088467
  69.0789333   1.8727186  83.4965757  68.1445612   1.9928649  83.3270461
  69.2566002   0.9699653  83.2325767  62.4083720   5.7170377  92.7454036
  63.1093179   6.3506860  92.8983430  61.9378835   6.0585109  91.9849675
  70.5338116   4.0588327  81.0301943  70.8097960   3.9444921  81.9395817
  69.6642614   3.6605812  80.9914116  67.1692180   8.3074678  84.6734756
  67.3514574   7.4896334  85.1362509  67.9925166   8.5242370  84.2359646
  67.5034345   7.2342863  81.9349805  68.0322112   6.7235317  81.3219967
  67.7662565   6.9185393  82.7995338  58.0051438   5.2506732  89.6785139
  58.5904875   4.5050420  89.8113043  57.8076276   5.5610689  90.5621802
  60.8590093   8.2857980  84.6947581  60.1900468   8.7704107  84.2111621
  60.7202963   8.5327200  85.6090959  52.5969093  -2.1787668  88.3989582
  52.6353192  -2.7124077  89.1926700  52.0909385  -2.7052462  87.7800559
  64.9995362  10.3201723  91.2930239  65.5513670  10.4833345  92.0579324
  65.3401555  10.9106161  90.6210264  69.8506236   5.1462981  97.1478894
  70.3946140   5.7592939  96.6533848  69.2693081   5.7042559  97.6645907
  56.2277670  -3.4523565  81.4743513  56.5231111  -4.3612887  81.4210567
  55.3265706  -3.4735826  81.1524515  68.1363749   8.2683699  88.2793921
  68.0114888   7.4673438  87.7704867  68.7942840   8.7629892  87.7907891
  70.1998657   6.0692719  89.9073471  69.2528993   5.9498070  89.8351798
  70.5481430   5.1815217  89.9899733  67.2045091   5.8645435  86.1077824
  67.0570053   4.9362142  86.2885394  68.0298584   5.8865526  85.6234899
  70.8079213   6.6873994  87.1942696  71.7325760   6.4816855  87.0567148
  70.6394516   6.4390395  88.1032038  70.5974529   7.2059661  82.5504788
  70.7711406   6.6406084  81.7978640  71.0903420   8.0060556  82.3684278
  56.4151489  -0.7825670  90.6168347  55.8704957  -0.0065862  90.7488621
  57.2930838  -0.4354865  90.4587468  71.5849701   6.5226425  79.6501686
  72.2800606   7.1433118  79.8689001  71.9272851   5.6721777  79.9254064
  57.2017510  -1.6555774  93.5098504  56.4599246  -1.5073138  94.0963134
  56.8810255  -1.3947508  92.6465253  73.4841124   3.9726131  81.1789017
  74.0092448   4.3113404  80.4538337  73.3963477   3.0373146  80.9952152
  65.1461173   7.8860205  93.3078894  65.4548299   7.6409351  94.1801593
  65.9436655   8.0906843  92.8197764  65.1681785  10.0398114  85.5384270
  64.7286775   9.5474493  86.2317127  65.9189902   9.4971082  85.2976345
  57.6474124   6.2309655  85.5408898  58.4732144   5.9313427  85.1607542
  57.2968176   5.4617278  85.9898687  62.6155657   5.5836123  87.6106572
  61.9935667   4.9206828  87.3108800  63.2860524   5.6097255  86.9280220
  55.8482729   4.1495982  86.4997832  55.0114637   3.7218156  86.3181833
  55.8206375   4.3428425  87.4368623  73.1735030   4.6059035  96.4840215
  72.3830574   4.5883173  95.9444714  72.9368385   5.1447328  97.2389252
  62.1769164   4.1340047  81.0865032  62.3257285   4.8175511  80.4331705
  62.9835608   4.1145137  81.6014488  74.7951102   3.8748443  94.0414965
  74.5035911   4.2378423  94.8778426  74.1823234   3.1615451  93.8628297
  59.9321797   0.1605224  82.0926101  59.6867839  -0.7432446  82.2906311
  60.1017712   0.1622375  81.1505579  65.6764570   6.6288177  78.5576780
  65.1038537   7.2478364  78.1047252  66.2497363   7.1787539  79.0916702
  68.8961829   6.9125327  79.6885362  69.8292503   6.8470889  79.8918238
  68.8085042   7.7481594  79.2299895  71.5249846   6.2291198  76.6489310
  71.4463478   5.8951061  77.5425068  72.3459513   6.7212966  76.6480782
  65.9450061   2.0166736  97.3593489  66.8653070   2.1945335  97.5533536
  65.9099644   1.0722781  97.2073189  55.1632226  -2.7894670  86.2846764
  54.8435010  -3.6429362  85.9921138  54.6165654  -2.5746092  87.0404731
  58.9412133  -0.0732229  90.0016270  59.1598143   0.8584879  90.0204304
  59.3537907  -0.4324255  90.7871074  55.0320486   0.8308241  88.2539886
  54.3383957   0.4162194  87.7409840  55.7793477   0.8728778  87.6573304
  63.6771269  -1.0701885  98.2084081  63.1938350  -0.2701525  98.4147970
  63.7632208  -1.0593940  97.2551525  56.9457228   0.7626495  86.1305900
  56.9227916   0.8614182  85.1787783  57.2557865   1.6091646  86.4523067
  59.6044606   2.8202650  90.2452515  60.5587860   2.7886592  90.1782446
  59.4057130   2.3593274  91.0602741  60.1943988   1.3903766  92.8123312
  61.0136877   1.8847845  92.8358150  60.4680796   0.4735734  92.7840880
  57.9594835   8.3622269  87.2622713  57.8249303   7.6022670  86.6960711
  57.5426897   9.0863169  86.7951502  69.0953798   3.5459193  76.2699288
  69.7989648   3.7509196  76.8856944  68.3716447   4.1135955  76.5348371
  61.1163961   9.2591587  87.4741155  60.9996345  10.2037019  87.3719846
  60.2956407   8.9565148  87.8626955  71.0040495   3.9841722  78.3197748
  71.8386099   3.5522921  78.1375223  70.8424838   3.8123736  79.2474643
  67.9732295   2.7922747  99.0107650  68.8423454   2.9663400  98.6494285
  67.4939046   3.6117164  98.8883379  62.1418475   9.9119848  90.6897084
  63.0445722   9.9443459  91.0063579  61.9155845   8.9820299  90.7043420
  63.8972077   8.6650835  87.3507162  62.9467708   8.6652697  87.2371535
  64.2004563   7.9183570  86.8343197  79.6324770  14.5011373  88.4152925
  80.2703180  14.3818121  87.7116265  79.5145613  15.4492217  88.4740877
  76.4414477  14.4538801  88.3514449  76.1032988  14.3379866  87.4634984
  77.3104245  14.0529967  88.3315456  72.3001292  16.3074278  84.3411340
  71.7366158  16.2164215  83.5727628  72.1853687  15.4874182  84.8213833
  76.9234260  15.6073653  94.3100655  76.9122900  15.2126451  93.4381159
  77.0854899  14.8739726  94.9034426  69.8465724  17.8025469  87.1795561
  70.6387016  17.4616294  86.7641860  70.0862374  17.9120444  88.0997714
  77.8800851  19.9745246  79.6525805  77.2288831  20.5599326  79.2659819
  78.6745214  20.5051440  79.7120843  71.8056478  17.0634383  80.0512940
  72.5787354  16.5163370  79.9125815  72.1581877  17.9278632  80.2627401
  73.6441521  18.3910765  93.2579839  73.3531387  19.2956396  93.1426505
  74.2798505  18.4327293  93.9723909  74.5697728  15.7687613  89.8481199
  75.1661300  15.5443636  89.1338162  74.6272699  15.0272359  90.4506646
  74.1422756  13.2227049  77.6831390  74.3948277  12.7008570  76.9214853
  73.2047315  13.0593194  77.7858073  79.1866039  12.2262827  85.4906133
  79.9729128  11.8082250  85.1396550  79.4504743  13.1308919  85.6587781
  79.3576116  17.6635677  80.1894790  78.7221949  17.7370304  80.9015694
  79.0273523  18.2529276  79.5113869  84.5874466  12.1638060  86.3939111
  85.3199638  11.5937277  86.6276941  83.8313822  11.7759661  86.8345617
  73.8619045  15.1255155  79.8855765  73.7455303  14.4500058  80.5536849
  73.9721305  14.6387529  79.0687918  76.2050586  14.5865302  83.5902454
  75.8408793  14.0595923  84.3015375  77.0617702  14.1963771  83.4168939
  82.1099886   5.8759634  90.8533720  81.7783211   6.7455045  90.6294935
  81.5145500   5.5595918  91.5327750  75.8456073   9.6155202  78.5863802
  76.0130475  10.4835438  78.9534273  75.6553242   9.7782483  77.6625092
  78.6031406  18.0772180  90.2529633  78.3032129  18.9797219  90.1445440
  78.2582465  17.8104364  91.1050786  72.0543887  14.5285977  86.2866337
  71.1294384  14.3962191  86.4944029  72.3028301  15.3080197  86.7836279
  82.0028550  10.5954721  87.9327070  81.0945427  10.5270129  87.6385831
  81.9516145  11.0726666  88.7608895  75.8245294  12.0712859  79.5710469
  75.7044919  12.5169910  80.4095949  75.1297882  12.4198177  79.0124007
  69.4152698  14.1719251  87.1210126  69.5445080  14.4253730  88.0349538
  68.7350150  14.7646959  86.8014781  73.5852186  24.8416501  83.2200600
  73.5076215  25.7924326  83.2989081  72.9813829  24.4962373  83.8775527
  76.0769415  12.0144366  95.8761967  75.3002750  12.5738286  95.8664832
  76.7159979  12.5001149  96.3976837  83.8690196   8.7971159  89.7104944
  83.2264576   9.0903692  89.0644738  83.3645125   8.6824079  90.5158141
  81.5230360  12.5434332  80.3990803  82.4348216  12.7761719  80.2238501
  81.0140007  13.1271376  79.8365882  74.3315788  14.8229820  95.4379934
  75.0730472  15.3614864  95.1614758  73.6252773  15.4496108  95.5951486
  79.8071127  16.9658960  94.0352096  80.2154483  16.5241371  93.2906728
  79.0848389  16.3911588  94.2886289  76.1602197  11.9031567  91.4085653
  77.0063393  12.3270980  91.5520302  76.1000835  11.2465191  92.1024216
  80.1299942  17.5260151  87.7904385  79.5008805  17.6905865  87.0880452
  79.7425604  17.9401760  88.5615349  84.0089174  18.4614589  85.1448748
  83.3240212  18.8413490  84.5945782  84.0933023  19.0709915  85.8780696
  79.3101643   9.5635935  93.0666826  79.0662575  10.3177996  92.5301102
  79.5861573   9.9421283  93.9014073  81.2640106  16.1074548  91.7444092
  81.4757001  16.7506307  91.0678473  81.2169854  15.2736864  91.2766022
  78.8666335   8.7192368  88.6480664  78.0050814   9.0173622  88.9397402
  78.8928769   8.9362767  87.7161697  75.6827904  17.2634559  85.0554470
  76.1466249  17.5422262  84.2659092  75.4184702  16.3618003  84.8727560
  72.5751985  16.8106040  87.9934233  73.1453342  17.2393309  87.3551717
  73.1660097  16.5288625  88.6918419  74.6196790  13.3857711  81.8644035
  75.3220833  13.8378755  82.3317961  74.2877418  12.7441530  82.4923928
  73.0677152  11.9769468  96.2395244  72.4375812  12.6585749  96.4730641
  72.9613239  11.8652549  95.2948383  68.3622124  11.6441264  87.1661168
  67.5721178  11.8998792  86.6901279  68.8533371  12.4589602  87.2713209
  82.3785934  18.9846503  89.9166449  83.2003377  18.5826690  89.6349131
  82.3748336  18.8814737  90.8682565  70.3136869  12.0085843  84.1244645
  69.5168033  12.1204537  84.6428141  70.0862462  12.3472495  83.2585536
  76.1442537  18.5330546  92.0727160  76.2086969  18.9950954  92.9085332
  75.4353461  17.9027911  92.2009470  66.6459827  11.8971754  89.5976159
  66.8967865  12.7818764  89.8633735  67.1819375  11.7176356  88.8251251
  90.4691927  15.3285251  86.2651421  89.7155635  14.7592650  86.1095425
  90.6039468  15.2947916  87.2122055  75.8590555  20.1998654  81.9406140
  75.7236229  21.0450190  82.3690988  76.4000367  20.4017931  81.1772074
  72.3457894   6.2790234  98.6020495  71.9524840   5.7256432  99.2768140
  73.1624035   6.5900812  98.9927013  69.3119952  17.7174092  82.5134065
  69.8244473  18.5117342  82.6639630  69.9642665  17.0200382  82.4467667
  71.1214837  20.8339848  84.5956818  71.2981465  21.7557813  84.4077802
  71.9171670  20.5198267  85.0251198  75.2625855   7.6948113  96.1940752
  76.0035569   8.2955266  96.1145214  75.4943778   6.9525751  95.6358794
  70.4067193  12.8804480  94.4718982  70.2920708  11.9789737  94.7726080
  69.5511711  13.1268177  94.1203798  77.4859031  20.8222220  96.0706482
  77.0422885  20.0358599  95.7527387  78.1476245  21.0101371  95.4050373
  72.2446152  22.3518022  90.5967161  72.7953577  22.2235085  89.8244155
  71.4057628  22.6512911  90.2462053  79.5840269  21.1025020  94.0987883
  79.5658744  21.9233901  93.6068153  80.5060189  20.9779095  94.3238025
  76.0413323  18.6169150  94.9411392  76.5741660  17.8557438  94.7110700
  75.5127404  18.3242802  95.6835546  67.2768869  16.0462746  83.2893636
  68.1144091  16.4559754  83.0727343  67.4547136  15.1062188  83.2593830
  79.1733301  13.7137827  78.9777469  78.6579924  14.4842431  79.2165856
  78.9010609  13.0402963  79.6010530  76.7580412   8.5587528  84.0362707
  75.9022008   8.1694378  83.8568346  77.1707364   8.6379488  83.1762493
  78.2879559   6.0933871  88.4354267  77.7844354   6.0564006  87.6222072
  78.5810165   7.0026614  88.4950923  74.5322444   6.1772601  87.4420449
  75.3975441   5.9815409  87.0826338  74.5999953   5.9482952  88.3689805
  84.1467575  16.4670181  80.9130642  83.3697018  16.1281341  80.4685804
  84.8259056  16.4722805  80.2385607  78.9619604  11.5864919  80.8037250
  78.6569740  11.9011068  81.6547393  79.9150046  11.6646339  80.8464583
  77.4066036  17.7455142  82.4530204  76.8787397  17.0107902  82.1403441
  76.9053539  18.5229819  82.2070172  82.3858882  15.9404163  87.5697250
  81.7282556  16.6303424  87.6577379  83.1899281  16.3300595  87.9131236
  72.1384764   8.4074808  84.8136815  72.7128515   8.1849990  84.0810008
  72.7255746   8.4763503  85.5665417  81.1964341  14.2948535  85.6201192
  81.7096222  14.9278527  86.1222902  81.8465565  13.6949731  85.2544552
  72.4654351  10.4379269  78.8332701  71.6291663  10.7753956  79.1541975
  72.3259120  10.3028249  77.8959838  74.4407431   5.2816057  83.5411885
  73.7871844   4.9665075  82.9168500  74.3987905   4.6591798  84.2671708
  75.5518636  15.5635352  75.4565177  74.6445698  15.3324606  75.6556326
  76.0489668  14.7672972  75.6439158  78.4586715  24.2732860  78.3761863
  77.7848414  24.5764556  78.9846821  78.8452537  25.0761940  78.0267320
  77.6745172  11.7697991  87.8659532  76.7567733  11.9912938  87.7081220
  78.0905315  11.8444301  87.0071240  78.4580219  13.1689407  82.9962213
  79.2052038  13.6810804  82.6869335  78.7271809  12.8473459  83.8566606
  76.7306870  15.6647947  79.9789167  75.8218089  15.3806980  80.0761637
  76.7601953  16.0847026  79.1192474  81.9626137  19.2754537  83.7480335
  81.5088464  18.4345447  83.8045525  81.3320104  19.9115935  84.0855115
  80.9059057  10.2046523  84.9781002  80.1681813   9.6923909  85.3091245
  81.1585830   9.7646904  84.1664279  80.4059076  21.1131034  84.6830153
  80.6982051  21.6736091  83.9642518  80.9157697  21.4059595  85.4383312
  67.2995040  13.3853461  83.9604369  67.1019440  12.7922822  83.2355436
  66.7441704  13.0805672  84.6780308  75.2791764  13.2776568  86.0798962
  75.3340373  12.3250404  86.0041439  74.4682966  13.4336007  86.5640261
  76.4282957  17.2056691  77.3177246  75.9902387  16.4892550  76.8582883
  77.1693398  17.4332806  76.7562337  73.2184123  11.8953628  83.8389341
  72.4051989  12.1947798  84.2454533  73.7143118  11.5009316  84.5563823
  75.3692701  21.8911385  85.7723606  75.3268880  22.1172231  84.8432138
  76.2855400  21.6574759  85.9209407  78.8158335  12.3595452  92.6704235
  79.1707723  12.5866925  93.5298701  79.4630466  12.6913829  92.0481490
  84.5456072  15.4813888  83.3753564  84.4073971  15.6715484  82.4474753
  84.1892291  16.2433271  83.8321615  72.7098198   9.4671983  89.4550576
  73.3497578   9.3260742  88.7573539  71.8775729   9.1806497  89.0789178
  84.5725452  17.5490415  88.3864836  85.0061958  17.4565704  89.2347890
  85.2857032  17.5247915  87.7484852  73.4858502  18.7674414  85.5685569
  74.2799101  18.2724734  85.3668144  72.7750195  18.2392277  85.2053274
  78.3053347  21.1492509  89.9197936  78.3590369  21.7183445  90.6875652
  77.4368128  21.3194394  89.5551973  69.7941266  12.9117495  81.6445321
  68.8638854  12.8501951  81.8615283  69.8898738  12.3893448  80.8481963
  69.7126815   9.4372308  84.2323563  69.9733632  10.3517641  84.1232723
  70.5343987   8.9696751  84.3820176  71.1851740  10.8510065  91.4022387
  71.8574793  10.6427427  90.7535036  70.3581527  10.6532151  90.9627620
  85.4341001  17.5914116  90.9197721  85.6276891  18.4959926  91.1656996
  85.3341619  17.1321535  91.7536306  77.0877312   7.4772006  93.4188048
  76.4405227   8.1761956  93.3252525  77.8578327   7.9108150  93.7864297
  80.4956110  17.7420858  96.4938602  80.3441616  17.5131410  95.5768685
  80.4860789  18.6991460  96.5069947  77.2641446  15.3152771  91.4784868
  78.1933506  15.4663931  91.3053835  76.8432476  15.4036792  90.6233515
  76.0629778  19.3403436  89.2483406  75.9240864  18.9722220  90.1209344
  75.2744374  19.8551075  89.0767363  76.6577930  24.4412532  80.5908942
  76.8329686  23.9700575  81.4054565  75.9710718  25.0678298  80.8190203
  77.6134993  18.7185038  86.6372243  77.2784826  18.6785808  87.5329893
  77.1138939  18.0529754  86.1642654  71.5879237  14.1252668  92.1624825
  71.4499035  13.3932907  92.7636364  72.4984161  14.0361568  91.8809012
  80.5494185  16.0641073  76.9109303  79.9323356  15.3387901  76.8142356
  80.0810673  16.8250433  76.5676377  74.2161538  13.8372628  91.6508504
  74.9261156  13.1965820  91.6095123  74.1730846  14.0885522  92.5734685
  82.2048317  20.7739981  94.5715083  82.1460863  20.0899201  93.9045666
  82.6067835  21.5158971  94.1195709  72.9290472  10.8237846  93.4704144
  72.3927829  10.3728584  94.1225740  72.3407180  10.9583754  92.7274608
  71.2239015  27.5901895  87.3648802  71.4635614  28.2220419  88.0427821
  70.3808212  27.2389935  87.6514162  72.3392731  10.2826497  76.0330607
  71.4622197  10.1615298  75.6692854  72.8150484   9.4912575  75.7809496
  82.2065724  18.7379565  92.8029063  81.3192503  18.4005487  92.9255462
  82.7764275  18.0062596  93.0397829  63.8594871  15.0703657  86.1272115
  64.5465911  14.7565387  85.5393130  63.7043000  15.9745021  85.8539366
  68.6629593   9.9593853  90.5557138  68.5787782   9.3519523  89.8207548
  67.8412300  10.4502872  90.5566635  75.7366877  23.3981017  89.7690306
  75.6637049  24.2035989  90.2809611  75.2944270  23.5972983  88.9438328
  75.5256657  22.6352787  83.2793128  74.7424179  23.1774467  83.3731352
  76.2249402  23.1526767  83.6787369  78.8353307   8.4447417  85.9227333
  79.3322007   7.6917379  85.6028404  78.0640289   8.4811733  85.3570543
  86.6883064  14.1487782  87.5645625  86.6772941  15.0312498  87.1939558
  85.8200444  13.7959333  87.3700162  78.1965561  23.2967851  91.9248465
  78.9093533  23.9315316  91.8524366  77.7055589  23.3931717  91.1088467
  79.9183088  17.2019104  83.4965757  78.9839366  17.3220566  83.3270461
  80.0959756  16.2991571  83.2325767  75.4188276  10.5864800  85.6499018
  75.0486063  10.0335840  86.3379923  75.9147368   9.9822933  85.0974018
  83.3055639  13.0436423  84.0315791  83.7716091  13.8764415  83.9576093
  83.7563140  12.5781405  84.7361049  73.2477474  21.0462295  92.7454036
  73.9486934  21.6798778  92.8983430  72.7772589  21.3877026  91.9849675
  81.3731870  19.3880245  81.0301943  81.6491714  19.2736839  81.9395817
  80.5036369  18.9897729  80.9914116  81.2772302   5.4117010  88.0706692
  80.3635382   5.6421237  88.2388899  81.7065403   5.4955454  88.9220725
  81.0478760  13.6006902  90.5706586  80.3950211  13.8482810  89.9159039
  81.4259140  12.7871040  90.2369063  78.0085934  23.6366595  84.6734756
  78.1908329  22.8188251  85.1362509  78.8318920  23.8534288  84.2359646
  78.3428100  22.5634781  81.9349805  78.8715866  22.0527235  81.3219967
  78.6056319  22.2477311  82.7995338  77.0966333  14.3426713  97.0572623
  76.4206970  14.2420843  97.7274998  77.9193967  14.1865927  97.5208620
  68.8445192  20.5798650  89.6785139  69.4298629  19.8342338  89.8113043
  68.6470031  20.8902607  90.5621802  71.6983848  23.6149897  84.6947581
  71.0294223  24.0996025  84.2111621  71.5596717  23.8619118  85.6090959
  63.4362847  13.1504250  88.3989582  63.4746947  12.6167841  89.1926700
  62.9303140  12.6239456  87.7800559  75.8389116  25.6493641  91.2930239
  76.3907424  25.8125262  92.0579324  76.1795310  26.2398079  90.6210264
  70.8153609   7.9968791  91.8952124  70.8794936   8.8583621  91.4829522
  70.7520730   7.3842792  91.1624482  70.2905882  10.0691923  95.5425158
  70.9177921   9.6869000  96.1562683  69.4333801   9.8506125  95.9080851
  80.6899991  20.4754898  97.1478894  81.2339895  21.0884857  96.6533848
  80.1086835  21.0334477  97.6645907  67.0671425  11.8768352  81.4743513
  67.3624866  10.9679031  81.4210567  66.1659460  11.8556092  81.1524515
  78.9757503  23.5975616  88.2793921  78.8508643  22.7965356  87.7704867
  79.6336595  24.0921810  87.7907891  70.5965672   9.9524349  87.4571062
  69.8752257  10.5660316  87.3178535  71.3858927  10.4882114  87.3787708
  81.0392412  21.3984636  89.9073471  80.0922747  21.2789988  89.8351798
  81.3875185  20.5107134  89.9899733  73.3991985   7.2878775  93.7311713
  73.9226387   7.5341072  94.4938023  73.1804318   8.1198810  93.3114851
  68.7959266   9.5582450  81.5982838  68.4671972   8.6779829  81.4157944
  69.1498637   9.5030119  82.4859227  78.0438845  21.1937353  86.1077824
  77.8963808  20.2654060  86.2885394  78.8692339  21.2157443  85.6234899
  71.9101089   9.8455420  81.9658316  72.2497162  10.3741341  81.2436924
  72.3573210  10.1835826  82.7416882  81.6472967  22.0165911  87.1942696
  82.5719514  21.8108773  87.0567148  81.4788270  21.7682312  88.1032038
  74.6044530   8.2292470  91.4161384  74.2641351   7.4300283  91.8182064
  73.8983537   8.5294181  90.8438217  75.2561002   5.3141783  89.8688707
  76.0787071   4.8402261  89.7467597  75.4999066   6.0932267  90.3687393
  73.8969237   8.3430041  80.1651609  74.6177599   8.7211294  79.6615325
  73.2734541   9.0618918  80.2686587  78.0400359   9.0475190  81.1009941
  78.2563974   9.9299828  80.7998769  77.5594427   8.6561404  80.3715583
  72.7799581  12.0060903  87.6780686  72.6344162  12.3201206  88.5704967
  72.3024784  12.6245804  87.1251584  74.6395964   8.9963451  87.7261575
  74.6257532   8.1004545  87.3893873  75.3568392   9.0034115  88.3599861
  76.4922094   9.4300792  89.7714703  76.2339872  10.3517862  89.7699033
  75.9607135   9.0331226  90.4615167  81.4368283  22.5351579  82.5504788
  81.6105161  21.9698001  81.7978640  81.9297174  23.3352474  82.3684278
  67.2545243  14.5466248  90.6168347  66.7098711  15.3226056  90.7488621
  68.1324593  14.8937052  90.4587468  74.0432860   7.8777832  82.9949145
  74.1648771   6.9494478  83.1940033  73.7534902   7.8916518  82.0827461
  76.9124050   5.5632742  86.1315865  76.9345747   5.6272075  85.1767845
  77.3292109   4.7237251  86.3256371  87.2907674  15.2988002  84.1695088
  87.7338820  14.5495327  83.7714211  86.4134185  15.2898138  83.7868820
  82.4243456  21.8518343  79.6501686  83.1194360  22.4725036  79.8689001
  82.7666606  21.0013694  79.9254064  68.0411265  13.6736144  93.5098504
  67.2993001  13.8218779  94.0963134  67.7204009  13.9344410  92.6465253
  84.3234879  19.3018049  81.1789017  84.8486203  19.6405321  80.4538337
  84.2357231  18.3665064  80.9952152  75.9854928  23.2152122  93.3078894
  76.2942054  22.9701269  94.1801593  76.7830410  23.4198761  92.8197764
  76.0075540  25.3690032  85.5384270  75.5680530  24.8766411  86.2317127
  76.7583657  24.8263000  85.2976345  68.4867879  21.5601573  85.5408898
  69.3125898  21.2605345  85.1607542  68.1361931  20.7909195  85.9898687
  73.4549412  20.9128041  87.6106572  72.8329421  20.2498746  87.3108800
  74.1254279  20.9389173  86.9280220  66.6876484  19.4787899  86.4997832
  65.8508392  19.0510074  86.3181833  66.6600129  19.6720343  87.4368623
  73.5273939   9.3909829  97.2039078  73.5762095  10.2671952  96.8216847
  74.0696453   8.8487222  96.6310721  84.0128785  19.9350952  96.4840215
  83.2224329  19.9175091  95.9444714  83.7762139  20.4739246  97.2389252
  84.1326660  16.7843419  93.7972943  84.1824665  16.6193426  94.7388466
  84.0240583  15.9170678  93.4070824  73.0162919  19.4631964  81.0865032
  73.1651039  20.1467429  80.4331705  73.8229362  19.4437054  81.6014488
  81.4230422  12.7674347  95.1132250  82.3240285  12.6280812  94.8216248
  81.4978397  12.9328802  96.0530428  75.7573228  10.1441201  93.9585437
  74.8876537  10.4374768  93.6868025  75.9932708  10.7281646  94.6792700
  85.6344857  19.2040360  94.0414965  85.3429665  19.5670341  94.8778426
  85.0216988  18.4907368  93.8628297  86.8340539  16.7693240  86.5617535
  87.6687430  17.2083044  86.7255096  86.9699668  16.2931893  85.7425781
  83.8832045  14.3272975  92.5095023  84.3586167  14.5200621  91.7013874
  82.9597610  14.3832161  92.2638407  70.7715552  15.4897142  82.0926101
  70.5261594  14.5859472  82.2906311  70.9411466  15.4914292  81.1505579
  78.4612261   6.3620818  91.4750857  78.9794205   7.0981845  91.1497345
  78.1067394   6.6684812  92.3097616  70.0411199  11.2225500  79.5912263
  69.3480444  11.2969855  78.9352299  69.7962951  10.4585843  80.1133780
  76.5158324  21.9580095  78.5576780  75.9432291  22.5770282  78.1047252
  77.0891118  22.5079457  79.0916702  82.5833714  11.2038735  90.7423329
  83.5351137  11.3036833  90.7635553  82.4137164  10.4117003  91.2521413
  80.6048093   8.2894318  90.9282730  80.0098026   8.5699331  90.2329218
  80.3197790   8.7788219  91.6999471  79.7355584  22.2417245  79.6885362
  80.6686257  22.1762807  79.8918238  79.6478797  23.0773512  79.2299895
  82.3643601  21.5583115  76.6489310  82.2857232  21.2242979  77.5425068
  83.1853267  22.0504883  76.6480782  85.0621792  14.4244855  89.8565628
  85.0298112  13.4860855  90.0425312  85.6722415  14.5028891  89.1231453
  76.9005123  13.2940908  75.8992832  77.8464227  13.1647116  75.9681250
  76.5219368  12.5555569  76.3762260  85.2116280  11.2155898  89.9023911
  84.6955329  10.4314355  89.7153840  86.0956229  10.8874615  90.0670431
  90.8798342  15.4860861  88.9971665  91.6101730  15.2246150  89.5579368
  90.2705287  14.7489583  89.0373733  88.9613639  13.6268724  89.5946116
  88.2346802  13.4924689  88.9862608  88.5460926  13.9345553  90.4002834
  76.7843815  17.3458654  97.3593489  77.7046825  17.5237253  97.5533536
  76.7493398  16.4014699  97.2073189  75.0848040  11.2190884  75.8347718
  74.1779495  10.9223997  75.9110431  75.3624021  10.9220702  74.9682004
  66.0025980  12.5397247  86.2846764  65.6828765  11.6862556  85.9921138
  65.4559408  12.7545826  87.0404731  69.7805888  15.2559688  90.0016270
  69.9991898  16.1876796  90.0204304  70.1931662  14.8967663  90.7871074
  76.7010106   5.7627774  81.9891959  75.8910834   5.4174859  82.3647205
  77.3894522   5.4535317  82.5779570  78.6300654   4.8405820  83.6116255
  79.1831692   5.2601274  84.2706279  78.8670740   3.9141569  83.6539211
  74.6533753  10.8292894  99.3919019  74.5530480  11.7787251  99.3231110
  74.4355295  10.5011133  98.5195089  73.8546824   8.0777819  75.9759697
  74.7165988   8.4032717  76.2355514  74.0397169   7.2909315  75.4632763
  65.8714240  16.1600159  88.2539886  65.1777712  15.7454112  87.7409840
  66.6187231  16.2020695  87.6573304  82.0079461   6.9506346  83.1194920
  81.4278130   7.6091150  82.7372972  81.7415394   6.1283690  82.7082337
  80.4583027   6.3511403  85.3216240  80.9582806   6.4627938  84.5130559
  81.1018635   6.0472456  85.9617048  74.5165023  14.2590033  98.2084081
  74.0332105  15.0590393  98.4147970  74.6025962  14.2697978  97.2551525
  67.7850983  16.0918413  86.1305900  67.7621671  16.1906100  85.1787783
  68.0951619  16.9383563  86.4523067  70.4438361  18.1494568  90.2452515
  71.3981614  18.1178510  90.1782446  70.2450884  17.6885191  91.0602741
  71.0337743  16.7195684  92.8123312  71.8530632  17.2139762  92.8358150
  71.3074550  15.8027652  92.7840880  80.7904339   9.1106436  82.1751268
  79.9030194   9.3956087  81.9571463  81.2058328   8.9500199  81.3278545
  84.1418875   9.1352957  85.8905607  84.9179265   9.6249409  86.1630224
  83.4167009   9.5611011  86.3477477  86.5791434   9.8480576  86.9479548
  87.1735924   9.6076312  86.2372856  86.6518017   9.1287707  87.5753084
  68.7988589  23.6914187  87.2622713  68.6643057  22.9314588  86.6960711
  68.3820652  24.4155087  86.7951502  79.9347552  18.8751111  76.2699288
  80.6383403  19.0801113  76.8856944  79.2110201  19.4427873  76.5348371
  80.7645363  14.6260972  82.3901558  80.7080564  15.0829523  81.5509191
  81.3173705  13.8651657  82.2124401  84.5750169  10.4150704  83.2151678
  84.3187103  10.0147339  84.0459885  83.9503037  11.1294498  83.0901817
  88.8862506  13.1546777  85.7222969  88.3262064  13.2239966  86.4954531
  88.2806010  12.9787762  85.0022465  71.9557715  24.5883504  87.4741155
  71.8390099  25.5328937  87.3719846  71.1350162  24.2857066  87.8626955
  81.8434250  19.3133640  78.3197748  82.6779854  18.8814838  78.1375223
  81.6818593  19.1415654  79.2474643  81.4980142  15.8165753  79.6854087
  81.4428946  15.6510025  78.7442531  80.8726197  16.5241786  79.8416277
  66.2872657  11.0533818  93.5115510  66.9331521  10.5432772  94.0002735
  66.0789808  11.7902499  94.0858935  78.8126049  18.1214665  99.0107650
  79.6817209  18.2955317  98.6494285  78.3332801  18.9409082  98.8883379
  74.8076267   5.3173862  79.2639406  74.7954937   6.2615702  79.4207677
  75.6999689   5.1344008  78.9698867  72.9812229  25.2411766  90.6897084
  73.8839476  25.2735376  91.0063579  72.7549599  24.3112217  90.7043420
  74.7365831  23.9942753  87.3507162  73.7861462  23.9944614  87.2371535
  75.0398318  23.2475487  86.8343197  70.6270148   8.2001435  97.6090524
  71.4901610   7.8438240  97.8193848  70.0535559   7.8615329  98.2965928
  90.4718525  29.8303291  88.4152925  91.1096935  29.7110038  87.7116265
  90.3539368  30.7784135  88.4740877  87.2808231  29.7830719  88.3514449
  86.9426743  29.6671784  87.4634984  88.1497999  29.3821884  88.3315456
  83.1395047  31.6366196  84.3411340  82.5759912  31.5456132  83.5727628
  83.0247442  30.8166100  84.8213833  87.7628014  30.9365571  94.3100655
  87.7516655  30.5418369  93.4381159  87.9248654  30.2031643  94.9034426
  80.6859479  33.1317387  87.1795561  81.4780771  32.7908212  86.7641860
  80.9256129  33.2412362  88.0997714  88.7194606  35.3037163  79.6525805
  88.0682585  35.8891244  79.2659819  89.5138968  35.8343358  79.7120843
  82.6450233  32.3926300  80.0512940  83.4181109  31.8455287  79.9125815
  82.9975632  33.2570550  80.2627401  84.4835275  33.7202683  93.2579839
  84.1925141  34.6248313  93.1426505  85.1192260  33.7619210  93.9723909
  85.4091482  31.0979531  89.8481199  86.0055054  30.8735554  89.1338162
  85.4666454  30.3564277  90.4506646  84.9816511  28.5518966  77.6831390
  85.2342031  28.0300488  76.9214853  84.0441070  28.3885112  77.7858073
  90.0259793  27.5554745  85.4906133  90.8122883  27.1374168  85.1396550
  90.2898498  28.4600837  85.6587781  90.1969871  32.9927595  80.1894790
  89.5615704  33.0662222  80.9015694  89.8667277  33.5821194  79.5113869
  95.4268221  27.4929978  86.3939111  96.1593392  26.9229195  86.6276941
  94.6707576  27.1051579  86.8345617  84.7012799  30.4547072  79.8855765
  84.5849057  29.7791976  80.5536849  84.8115059  29.9679446  79.0687918
  87.0444340  29.9157220  83.5902454  86.6802547  29.3887841  84.3015375
  87.9011456  29.5255689  83.4168939  92.9493641  21.2051552  90.8533720
  92.6176966  22.0746963  90.6294935  92.3539254  20.8887836  91.5327750
  86.6849827  24.9447119  78.5863802  86.8524230  25.8127356  78.9534273
  86.4946996  25.1074401  77.6625092  89.4425160  33.4064098  90.2529633
  89.1425883  34.3089137  90.1445440  89.0976220  33.1396281  91.1050786
  82.8937642  29.8577895  86.2866337  81.9688138  29.7254109  86.4944029
  83.1422055  30.6372114  86.7836279  92.8422304  25.9246638  87.9327070
  91.9339182  25.8562047  87.6385831  92.7909900  26.4018583  88.7608895
  86.6639048  27.4004777  79.5710469  86.5438673  27.8461828  80.4095949
  85.9691636  27.7490094  79.0124007  80.2546453  29.5011169  87.1210126
  80.3838834  29.7545647  88.0349538  79.5743904  30.0938877  86.8014781
  84.4245940  40.1708419  83.2200600  84.3469970  41.1216244  83.2989081
  83.8207584  39.8254291  83.8775527  86.9163170  27.3436284  95.8761967
  86.1396504  27.9030204  95.8664832  87.5553733  27.8293067  96.3976837
  94.7083951  24.1263077  89.7104944  94.0658331  24.4195610  89.0644738
  94.2038879  24.0115997  90.5158141  92.3624114  27.8726250  80.3990803
  93.2741970  28.1053637  80.2238501  91.8533761  28.4563294  79.8365882
  85.1709542  30.1521737  95.4379934  85.9124227  30.6906781  95.1614758
  84.4646528  30.7788026  95.5951486  90.6464882  32.2950878  94.0352096
  91.0548238  31.8533288  93.2906728  89.9242143  31.7203505  94.2886289
  86.9995952  27.2323485  91.4085653  87.8457147  27.6562898  91.5520302
  86.9394590  26.5757109  92.1024216  90.9693697  32.8552068  87.7904385
  90.3402559  33.0197783  87.0880452  90.5819359  33.2693678  88.5615349
  94.8482928  33.7906506  85.1448748  94.1633967  34.1705408  84.5945782
  94.9326778  34.4001833  85.8780696  90.1495397  24.8927853  93.0666826
  89.9056329  25.6469913  92.5301102  90.4255328  25.2713200  93.9014073
  92.1033860  31.4366465  91.7444092  92.3150755  32.0798225  91.0678473
  92.0563608  30.6028782  91.2766022  89.7060089  24.0484286  88.6480664
  88.8444568  24.3465539  88.9397402  89.7322524  24.2654685  87.7161697
  86.5221658  32.5926476  85.0554470  86.9860004  32.8714179  84.2659092
  86.2578457  31.6909921  84.8727560  83.4145739  32.1397958  87.9934233
  83.9847097  32.5685226  87.3551717  84.0053851  31.8580543  88.6918419
  85.4590544  28.7149629  81.8644035  86.1614588  29.1670673  82.3317961
  85.1271173  28.0733448  82.4923928  83.9070906  27.3061385  96.2395244
  83.2769567  27.9877666  96.4730641  83.8006994  27.1944467  95.2948383
  79.2015878  26.9733181  87.1661168  78.4114932  27.2290710  86.6901279
  79.6927126  27.7881519  87.2713209  93.2179688  34.3138421  89.9166449
  94.0397132  33.9118608  89.6349131  93.2142091  34.2106655  90.8682565
  81.1530624  27.3377761  84.1244645  80.3561787  27.4496455  84.6428141
  80.9256216  27.6764413  83.2585536  86.9836291  33.8622464  92.0727160
  87.0480724  34.3242871  92.9085332  86.2747215  33.2319829  92.2009470
  77.4853581  27.2263672  89.5976159  77.7361620  28.1110682  89.8633735
  78.0213130  27.0468273  88.8251251 101.3085681  30.6577169  86.2651421
 100.5549389  30.0884567  86.1095425 101.4433222  30.6239834  87.2122055
  86.6984309  35.5290571  81.9406140  86.5629984  36.3742107  82.3690988
  87.2394122  35.7309849  81.1772074  83.1851649  21.6082151  98.6020495
  82.7918594  21.0548350  99.2768140  84.0017789  21.9192730  98.9927013
  80.1513706  33.0466009  82.5134065  80.6638227  33.8409260  82.6639630
  80.8036419  32.3492300  82.4467667  81.9608591  36.1631766  84.5956818
  82.1375220  37.0849730  84.4077802  82.7565425  35.8490185  85.0251198
  86.1019610  23.0240030  96.1940752  86.8429323  23.6247184  96.1145214
  86.3337533  22.2817668  95.6358794  81.2460948  28.2096398  94.4718982
  81.1314463  27.3081655  94.7726080  80.3905465  28.4560094  94.1203798
  88.3252785  36.1514138  96.0706482  87.8816640  35.3650517  95.7527387
  88.9869999  36.3393288  95.4050373  83.0839907  37.6809940  90.5967161
  83.6347332  37.5527003  89.8244155  82.2451383  37.9804829  90.2462053
  90.4234024  36.4316938  94.0987883  90.4052499  37.2525819  93.6068153
  91.3453944  36.3071013  94.3238025  86.8807078  33.9461067  94.9411392
  87.4135414  33.1849356  94.7110700  86.3521159  33.6534719  95.6835546
  90.0476773  19.0521133  90.4705034  89.7041042  19.9422775  90.3944144
  90.4155735  18.8622791  89.6074619  78.1162623  31.3754664  83.2893636
  78.9537845  31.7851672  83.0727343  78.2940891  30.4354106  83.2593830
  90.0127055  29.0429744  78.9777469  89.4973679  29.8134349  79.2165856
  89.7404364  28.3694881  79.6010530  87.5974166  23.8879445  84.0362707
  86.7415763  23.4986296  83.8568346  88.0101118  23.9671406  83.1762493
  89.1273313  21.4225788  88.4354267  88.6238109  21.3855924  87.6222072
  89.4203920  22.3318531  88.4950923  85.3716199  21.5064518  87.4420449
  86.2369196  21.3107327  87.0826338  85.4393708  21.2774870  88.3689805
  94.9861330  31.7962099  80.9130642  94.2090772  31.4573259  80.4685804
  95.6652810  31.8014722  80.2385607  89.8013359  26.9156837  80.8037250
  89.4963494  27.2302986  81.6547393  90.7543801  26.9938256  80.8464583
  88.2459790  33.0747060  82.4530204  87.7181152  32.3399819  82.1403441
  87.7447293  33.8521736  82.2070172  93.2252636  31.2696080  87.5697250
  92.5676311  31.9595342  87.6577379  94.0293036  31.6592512  87.9131236
  82.9778518  23.7366726  84.8136815  83.5522270  23.5141908  84.0810008
  83.5649500  23.8055421  85.5665417  92.0358095  29.6240453  85.6201192
  92.5489977  30.2570445  86.1222902  92.6859319  29.0241649  85.2544552
  83.3048105  25.7671187  78.8332701  82.4685417  26.1045874  79.1541975
  83.1652875  25.6320167  77.8959838  85.2801186  20.6107975  83.5411885
  84.6265598  20.2956992  82.9168500  85.2381660  19.9883716  84.2671708
  86.3912391  30.8927270  75.4565177  85.4839452  30.6616524  75.6556326
  86.8883423  30.0964889  75.6439158  89.2980469  39.6024777  78.3761863
  88.6242168  39.9056474  78.9846821  89.6846291  40.4053858  78.0267320
  88.5138926  27.0989909  87.8659532  87.5961487  27.3204856  87.7081220
  88.9299070  27.1736219  87.0071240  89.2973974  28.4981324  82.9962213
  90.0445793  29.0102721  82.6869335  89.5665563  28.1765377  83.8566606
  87.5700624  30.9939865  79.9789167  86.6611843  30.7098898  80.0761637
  87.5995708  31.4138944  79.1192474  92.8019891  34.6046454  83.7480335
  92.3482219  33.7637364  83.8045525  92.1713858  35.2407853  84.0855115
  91.7452811  25.5338441  84.9781002  91.0075568  25.0215827  85.3091245
  91.9979585  25.0938822  84.1664279  91.2452831  36.4422951  84.6830153
  91.5375805  37.0028008  83.9642518  91.7551451  36.7351512  85.4383312
  91.8464438  18.3114693  85.5722771  92.1523315  17.4512056  85.2848686
  92.5717043  18.9032313  85.3721765  78.1388794  28.7145379  83.9604369
  77.9413194  28.1214740  83.2355436  77.5835458  28.4097589  84.6780308
  86.1185518  28.6068486  86.0798962  86.1734128  27.6542322  86.0041439
  85.3076720  28.7627925  86.5640261  87.2676712  32.5348609  77.3177246
  86.8296142  31.8184468  76.8582883  88.0087153  32.7624723  76.7562337
  84.0577878  27.2245545  83.8389341  83.2445744  27.5239716  84.2454533
  84.5536872  26.8301234  84.5563823  86.2086456  37.2203302  85.7723606
  86.1662635  37.4464149  84.8432138  87.1249155  36.9866677  85.9209407
  89.6552090  27.6887370  92.6704235  90.0101477  27.9158843  93.5298701
  90.3024221  28.0205747  92.0481490  95.3849827  30.8105806  83.3753564
  95.2467725  31.0007402  82.4474753  95.0286045  31.5725189  83.8321615
  83.5491953  24.7963901  89.4550576  84.1891332  24.6552660  88.7573539
  82.7169483  24.5098414  89.0789178  95.4119206  32.8782333  88.3864836
  95.8455713  32.7857622  89.2347890  96.1250787  32.8539833  87.7484852
  84.3252257  34.0966331  85.5685569  85.1192855  33.6016651  85.3668144
  83.6143949  33.5684194  85.2053274  89.1447101  36.4784427  89.9197936
  89.1984123  37.0475363  90.6875652  88.2761882  36.6486312  89.5551973
  80.6335020  28.2409413  81.6445321  79.7032608  28.1793869  81.8615283
  80.7292492  27.7185366  80.8481963  80.5520569  24.7664226  84.2323563
  80.8127386  25.6809559  84.1232723  81.3737741  24.2988668  84.3820176
  82.0245494  26.1801983  91.4022387  82.6968548  25.9719345  90.7535036
  81.1975281  25.9824069  90.9627620  96.2734756  32.9206033  90.9197721
  96.4670646  33.8251844  91.1656996  96.1735374  32.4613452  91.7536306
  87.9271067  22.8063924  93.4188048  87.2798982  23.5053874  93.3252525
  88.6972082  23.2400068  93.7864297  91.3349864  33.0712776  96.4938602
  91.1835371  32.8423328  95.5768685  91.3254544  34.0283378  96.5069947
  88.1035201  30.6444689  91.4784868  89.0327261  30.7955848  91.3053835
  87.6826231  30.7328710  90.6233515  86.9023533  34.6695353  89.2483406
  86.7634618  34.3014138  90.1209344  86.1138129  35.1842993  89.0767363
  87.4971685  39.7704450  80.5908942  87.6723440  39.2992493  81.4054565
  86.8104473  40.3970216  80.8190203  88.4528748  34.0476956  86.6372243
  88.1178580  34.0077726  87.5329893  87.9532693  33.3821672  86.1642654
  82.4272992  29.4544586  92.1624825  82.2892790  28.7224825  92.7636364
  83.3377915  29.3653486  91.8809012  91.3887939  31.3932990  76.9109303
  90.7717110  30.6679818  76.8142356  90.9204428  32.1542351  76.5676377
  85.0555292  29.1664545  91.6508504  85.7654911  28.5257738  91.6095123
  85.0124601  29.4177440  92.5734685  93.0442071  36.1031899  94.5715083
  92.9854617  35.4191119  93.9045666  93.4461589  36.8450889  94.1195709
  83.7684226  26.1529763  93.4704144  83.2321583  25.7020502  94.1225740
  83.1800935  26.2875672  92.7274608  82.0632770  42.9193813  87.3648802
  82.3029368  43.5512337  88.0427821  81.2201966  42.5681853  87.6514162
  83.1786485  25.6118415  76.0330607  82.3015952  25.4907215  75.6692854
  83.6544238  24.8204493  75.7809496  93.0459478  34.0671483  92.8029063
  92.1586257  33.7297404  92.9255462  93.6158029  33.3354514  93.0397829
  74.6988625  30.3995574  86.1272115  75.3859665  30.0857304  85.5393130
  74.5436754  31.3036939  85.8539366  79.5023348  25.2885771  90.5557138
  79.4181536  24.6811440  89.8207548  78.6806054  25.7794789  90.5566635
  86.5760632  38.7272935  89.7690306  86.5030803  39.5327906  90.2809611
  86.1338025  38.9264901  88.9438328  86.3650411  37.9644705  83.2793128
  85.5817933  38.5066385  83.3731352  87.0643157  38.4818685  83.6787369
  89.6747061  23.7739334  85.9227333  90.1715761  23.0209297  85.6028404
  88.9034043  23.8103651  85.3570543  97.5276819  29.4779700  87.5645625
  97.5166695  30.3604415  87.1939558  96.6594198  29.1251251  87.3700162
  89.0359315  38.6259769  91.9248465  89.7487287  39.2607234  91.8524366
  88.5449344  38.7223635  91.1088467  90.7576842  32.5311022  83.4965757
  89.8233121  32.6512484  83.3270461  90.9353511  31.6283488  83.2325767
  86.2582030  25.9156717  85.6499018  85.8879818  25.3627758  86.3379923
  86.7541123  25.3114851  85.0974018  94.1449394  28.3728341  84.0315791
  94.6109846  29.2056333  83.9576093  94.5956894  27.9073323  84.7361049
  84.0871229  36.3754212  92.7454036  84.7880688  37.0090695  92.8983430
  83.6166344  36.7168944  91.9849675  92.2125625  34.7172162  81.0301943
  92.4885469  34.6028757  81.9395817  91.3430123  34.3189647  80.9914116
  92.1166056  20.7408928  88.0706692  91.2029136  20.9713155  88.2388899
  92.5459158  20.8247372  88.9220725  91.8872515  28.9298820  90.5706586
  91.2343965  29.1774727  89.9159039  92.2652895  28.1162958  90.2369063
  88.8479689  38.9658513  84.6734756  89.0302083  38.1480169  85.1362509
  89.6712675  39.1826205  84.2359646  89.1821854  37.8926698  81.9349805
  89.7109621  37.3819153  81.3219967  89.4450074  37.5769228  82.7995338
  87.9360088  29.6718631  97.0572623  87.2600725  29.5712760  97.7274998
  88.7587722  29.5157845  97.5208620  79.6838947  35.9090567  89.6785139
  80.2692384  35.1634255  89.8113043  79.4863785  36.2194524  90.5621802
  82.5377602  38.9441815  84.6947581  81.8687977  39.4287943  84.2111621
  82.3990472  39.1911035  85.6090959  74.2756602  28.4796168  88.3989582
  74.3140701  27.9459758  89.1926700  73.7696894  27.9531373  87.7800559
  86.6782871  40.9785558  91.2930239  87.2301179  41.1417180  92.0579324
  87.0189064  41.5689996  90.6210264  81.6547364  23.3260708  91.8952124
  81.7188690  24.1875539  91.4829522  81.5914484  22.7134710  91.1624482
  81.1299636  25.3983841  95.5425158  81.7571675  25.0160918  96.1562683
  80.2727555  25.1798043  95.9080851  91.5293745  35.8046816  97.1478894
  92.0733649  36.4176774  96.6533848  90.9480590  36.3626394  97.6645907
  77.9065179  27.2060270  81.4743513  78.2018620  26.2970948  81.4210567
  77.0053215  27.1848009  81.1524515  89.8151258  38.9267534  88.2793921
  89.6902397  38.1257274  87.7704867  90.4730349  39.4213727  87.7907891
  81.4359426  25.2816266  87.4571062  80.7146012  25.8952234  87.3178535
  82.2252682  25.8174031  87.3787708  91.8786166  36.7276554  89.9073471
  90.9316502  36.6081905  89.8351798  92.2268939  35.8399052  89.9899733
  84.2385740  22.6170693  93.7311713  84.7620142  22.8632989  94.4938023
  84.0198073  23.4490728  93.3114851  79.6353021  24.8874368  81.5982838
  79.3065727  24.0071746  81.4157944  79.9892391  24.8322036  82.4859227
  88.8832600  36.5229270  86.1077824  88.7357562  35.5945978  86.2885394
  89.7086093  36.5449361  85.6234899  82.7494844  25.1747337  81.9658316
  83.0890916  25.7033259  81.2436924  83.1966964  25.5127743  82.7416882
  92.4866721  37.3457829  87.1942696  93.4113269  37.1400690  87.0567148
  92.3182025  37.0974230  88.1032038  85.4438285  23.5584388  91.4161384
  85.1035105  22.7592201  91.8182064  84.7377291  23.8586099  90.8438217
  86.0954757  20.6433700  89.8688707  86.9180826  20.1694179  89.7467597
  86.3392820  21.4224184  90.3687393  84.7362991  23.6721959  80.1651609
  85.4571354  24.0503212  79.6615325  84.1128295  24.3910836  80.2686587
  88.8794114  24.3767108  81.1009941  89.0957728  25.2591746  80.7998769
  88.3988181  23.9853321  80.3715583  83.6193335  27.3352821  87.6780686
  83.4737916  27.6493124  88.5704967  83.1418539  27.9537721  87.1251584
  85.4789718  24.3255369  87.7261575  85.4651287  23.4296462  87.3893873
  86.1962146  24.3326033  88.3599861  87.3315849  24.7592709  89.7714703
  87.0733627  25.6809780  89.7699033  86.8000889  24.3623144  90.4615167
  92.2762038  37.8643496  82.5504788  92.4498915  37.2989919  81.7978640
  92.7690929  38.6644391  82.3684278  78.0938997  29.8758165  90.6168347
  77.5492466  30.6517973  90.7488621  78.9718347  30.2228970  90.4587468
  84.8826614  23.2069749  82.9949145  85.0042525  22.2786396  83.1940033
  84.5928657  23.2208435  82.0827461  87.7517805  20.8924660  86.1315865
  87.7739501  20.9563993  85.1767845  88.1685864  20.0529168  86.3256371
  98.1301429  30.6279919  84.1695088  98.5732575  29.8787245  83.7714211
  97.2527939  30.6190056  83.7868820  93.2637210  37.1810261  79.6501686
  93.9588115  37.8016953  79.8689001  93.6060360  36.3305612  79.9254064
  78.8805019  29.0028062  93.5098504  78.1386755  29.1510697  94.0963134
  78.5597764  29.2636327  92.6465253  95.1628633  34.6309966  81.1789017
  95.6879957  34.9697239  80.4538337  95.0750986  33.6956982  80.9952152
  86.8248682  38.5444040  93.3078894  87.1335808  38.2993187  94.1801593
  87.6224164  38.7490678  92.8197764  86.8469294  40.6981950  85.5384270
  86.4074284  40.2058328  86.2317127  87.5977411  40.1554917  85.2976345
  79.3261633  36.8893490  85.5408898  80.1519653  36.5897262  85.1607542
  78.9755685  36.1201113  85.9898687  84.2943166  36.2419959  87.6106572
  83.6723175  35.5790664  87.3108800  84.9648033  36.2681091  86.9280220
  77.5270238  34.8079817  86.4997832  76.6902146  34.3801991  86.3181833
  77.4993884  35.0012260  87.4368623  84.3667694  24.7201747  97.2039078
  84.4155849  25.5963870  96.8216847  84.9090208  24.1779140  96.6310721
  94.8522539  35.2642870  96.4840215  94.0618083  35.2467009  95.9444714
  94.6155894  35.8031164  97.2389252  94.9720414  32.1135336  93.7972943
  95.0218419  31.9485344  94.7388466  94.8634338  31.2462595  93.4070824
  83.8556673  34.7923882  81.0865032  84.0044793  35.4759346  80.4331705
  84.6623117  34.7728972  81.6014488  92.2624177  28.0966264  95.1132250
  93.1634040  27.9572729  94.8216248  92.3372151  28.2620719  96.0530428
  86.5966982  25.4733119  93.9585437  85.7270292  25.7666685  93.6868025
  86.8326463  26.0573564  94.6792700  96.4738611  34.5332278  94.0414965
  96.1823420  34.8962258  94.8778426  95.8610743  33.8199286  93.8628297
  97.6734294  32.0985158  86.5617535  98.5081185  32.5374962  86.7255096
  97.8093422  31.6223811  85.7425781  94.7225799  29.6564892  92.5095023
  95.1979921  29.8492539  91.7013874  93.7991365  29.7124078  92.2638407
  81.6109306  30.8189060  82.0926101  81.3655348  29.9151390  82.2906311
  81.7805221  30.8206210  81.1505579  89.3006016  21.6912736  91.4750857
  89.8187960  22.4273763  91.1497345  88.9461149  21.9976729  92.3097616
  80.8804954  26.5517417  79.5912263  80.1874199  26.6261772  78.9352299
  80.6356706  25.7877761  80.1133780  89.5518610  18.1113019  86.9951754
  89.8320364  17.4436208  87.6212180  90.3369217  18.3042114  86.4826417
  87.3552079  37.2872012  78.5576780  86.7826046  37.9062200  78.1047252
  87.9284872  37.8371374  79.0916702  93.4227468  26.5330653  90.7423329
  94.3744891  26.6328750  90.7635553  93.2530919  25.7408921  91.2521413
  91.4441848  23.6186236  90.9282730  90.8491780  23.8991249  90.2329218
  91.1591545  24.1080137  91.6999471  90.5749338  37.5709163  79.6885362
  91.5080012  37.5054724  79.8918238  90.4872551  38.4065429  79.2299895
  93.2037355  36.8875033  76.6489310  93.1250987  36.5534897  77.5425068
  94.0247022  37.3796801  76.6480782  95.9015546  29.7536772  89.8565628
  95.8691866  28.8152773  90.0425312  96.5116170  29.8320809  89.1231453
  87.7398877  28.6232825  75.8992832  88.6857982  28.4939033  75.9681250
  87.3613122  27.8847487  76.3762260  96.0510035  26.5447816  89.9023911
  95.5349083  25.7606272  89.7153840  96.9349983  26.2166532  90.0670431
  93.7120762  20.2888831  85.8619724  93.5145583  19.9803919  86.7463056
  94.3220467  21.0150470  85.9917654 101.7192096  30.8152779  88.9971665
 102.4495485  30.5538067  89.5579368 101.1099042  30.0781501  89.0373733
  99.8007393  28.9560642  89.5946116  99.0740557  28.8216607  88.9862608
  99.3854680  29.2637470  90.4002834  87.6237570  32.6750571  97.3593489
  88.5440579  32.8529170  97.5533536  87.5887153  31.7306617  97.2073189
  85.9241794  26.5482802  75.8347718  85.0173250  26.2515914  75.9110431
  86.2017775  26.2512620  74.9682004  76.8419735  27.8689165  86.2846764
  76.5222519  27.0154473  85.9921138  76.2953163  28.0837743  87.0404731
  80.6199642  30.5851606  90.0016270  80.8385652  31.5168714  90.0204304
  81.0325416  30.2259580  90.7871074  87.5403860  21.0919691  81.9891959
  86.7304588  20.7466776  82.3647205  88.2288277  20.7827235  82.5779570
  89.4694408  20.1697738  83.6116255  90.0225447  20.5893192  84.2706279
  89.7064495  19.2433486  83.6539211  85.4927508  26.1584812  99.3919019
  85.3924234  27.1079169  99.3231110  85.2749050  25.8303051  98.5195089
  84.6940579  23.4069737  75.9759697  85.5559743  23.7324635  76.2355514
  84.8790923  22.6201233  75.4632763  76.7107995  31.4892077  88.2539886
  76.0171466  31.0746029  87.7409840  77.4580986  31.5312613  87.6573304
  92.8473215  22.2798263  83.1194920  92.2671884  22.9383067  82.7372972
  92.5809148  21.4575608  82.7082337  91.2976782  21.6803321  85.3216240
  91.7976560  21.7919856  84.5130559  91.9412390  21.3764374  85.9617048
  85.3558778  29.5881951  98.2084081  84.8725859  30.3882311  98.4147970
  85.4419717  29.5989896  97.2551525  78.6244737  31.4210330  86.1305900
  78.6015425  31.5198018  85.1787783  78.9345374  32.2675481  86.4523067
  81.2832115  33.4786485  90.2452515  82.2375369  33.4470428  90.1782446
  81.0844639  33.0177109  91.0602741  81.8731497  32.0487601  92.8123312
  82.6924386  32.5431680  92.8358150  82.1468305  31.1319570  92.7840880
  91.6298093  24.4398354  82.1751268  90.7423948  24.7248004  81.9571463
  92.0452082  24.2792117  81.3278545  94.9812630  24.4644875  85.8905607
  95.7573020  24.9541327  86.1630224  94.2560764  24.8902929  86.3477477
  97.4185188  25.1772494  86.9479548  98.0129679  24.9368230  86.2372856
  97.4911772  24.4579624  87.5753084  79.6382344  39.0206105  87.2622713
  79.5036812  38.2606506  86.6960711  79.2214406  39.7447005  86.7951502
  90.7741307  34.2043028  76.2699288  91.4777157  34.4093031  76.8856944
  90.0503956  34.7719790  76.5348371  91.6039117  29.9552890  82.3901558
  91.5474319  30.4121441  81.5509191  92.1567460  29.1943574  82.2124401
  95.4143923  25.7442621  83.2151678  95.1580857  25.3439257  84.0459885
  94.7896791  26.4586415  83.0901817  99.7256261  28.4838695  85.7222969
  99.1655819  28.5531884  86.4954531  99.1199764  28.3079679  85.0022465
  82.7951470  39.9175422  87.4741155  82.6783854  40.8620854  87.3719846
  81.9743916  39.6148983  87.8626955  92.6828004  34.6425558  78.3197748
  93.5173608  34.2106756  78.1375223  92.5212347  34.4707571  79.2474643
  92.3373896  31.1457671  79.6854087  92.2822700  30.9801942  78.7442531
  91.7119952  31.8533704  79.8416277  77.1266411  26.3825735  93.5115510
  77.7725275  25.8724689  94.0002735  76.9183563  27.1194417  94.0858935
  89.6519804  33.4506583  99.0107650  90.5210963  33.6247235  98.6494285
  89.1726555  34.2701000  98.8883379  85.6470022  20.6465780  79.2639406
  85.6348692  21.5907620  79.4207677  86.5393444  20.4635925  78.9698867
  83.8205984  40.5703684  90.6897084  84.7233231  40.6027294  91.0063579
  83.5943354  39.6404135  90.7043420  85.5759586  39.3234670  87.3507162
  84.6255217  39.3236532  87.2371535  85.8792072  38.5767405  86.8343197
  89.4622141  17.2408557  83.5185343  88.6954537  16.6867043  83.6642025
  89.8732846  17.3130425  84.3799494  81.4663902  23.5293352  97.6090524
  82.3295364  23.1730157  97.8193848  80.8929313  23.1907247  98.2965928
 101.3112279  45.1595209  88.4152925 101.9490689  45.0401956  87.7116265
 101.1933122  46.1076053  88.4740877  98.1201986  45.1122637  88.3514449
  97.7820497  44.9963701  87.4634984  98.9891754  44.7113802  88.3315456
  93.9788801  46.9658113  84.3411340  93.4153666  46.8748050  83.5727628
  93.8641196  46.1458018  84.8213833  98.6021769  46.2657489  94.3100655
  98.5910409  45.8710287  93.4381159  98.7642408  45.5323561  94.9034426
  91.5253233  48.4609305  87.1795561  92.3174525  48.1200129  86.7641860
  91.7649883  48.5704280  88.0997714  99.5588360  50.6329081  79.6525805
  98.9076340  51.2183161  79.2659819 100.3532723  51.1635276  79.7120843
  93.4843987  47.7218218  80.0512940  94.2574863  47.1747205  79.9125815
  93.8369386  48.5862467  80.2627401  95.3229030  49.0494600  93.2579839
  95.0318896  49.9540231  93.1426505  95.9586014  49.0911128  93.9723909
  96.2485237  46.4271449  89.8481199  96.8448809  46.2027471  89.1338162
  96.3060208  45.6856194  90.4506646  95.8210265  43.8810884  77.6831390
  96.0735786  43.3592405  76.9214853  94.8834824  43.7177030  77.7858073
 100.8653548  42.8846663  85.4906133 101.6516637  42.4666086  85.1396550
 101.1292252  43.7892755  85.6587781 101.0363625  48.3219513  80.1894790
 100.4009458  48.3954139  80.9015694 100.7061032  48.9113112  79.5113869
 106.2661975  42.8221896  86.3939111 106.9987147  42.2521113  86.6276941
 105.5101331  42.4343496  86.8345617  95.5406554  45.7838990  79.8855765
  95.4242812  45.1083894  80.5536849  95.6508814  45.2971364  79.0687918
  97.8838095  45.2449137  83.5902454  97.5196302  44.7179758  84.3015375
  98.7405211  44.8547606  83.4168939 103.7887395  36.5343470  90.8533720
 103.4570720  37.4038881  90.6294935 103.1933009  36.2179754  91.5327750
  97.5243582  40.2739037  78.5863802  97.6917984  41.1419273  78.9534273
  97.3340751  40.4366319  77.6625092 100.2818915  48.7356016  90.2529633
  99.9819638  49.6381055  90.1445440  99.9369974  48.4688199  91.1050786
  93.7331396  45.1869813  86.2866337  92.8081893  45.0546027  86.4944029
  93.9815810  45.9664032  86.7836279 103.6816059  41.2538556  87.9327070
 102.7732936  41.1853964  87.6385831 103.6303654  41.7310501  88.7608895
  97.5032803  42.7296694  79.5710469  97.3832428  43.1753745  80.4095949
  96.8085391  43.0782012  79.0124007  91.0940207  44.8303086  87.1210126
  91.2232589  45.0837565  88.0349538  90.4137659  45.4230794  86.8014781
  95.2639695  55.5000336  83.2200600  95.1863724  56.4508161  83.2989081
  94.6601338  55.1546209  83.8775527  97.7556924  42.6728202  95.8761967
  96.9790259  43.2322122  95.8664832  98.3947488  43.1584985  96.3976837
 105.5477705  39.4554994  89.7104944 104.9052085  39.7487528  89.0644738
 105.0432634  39.3407915  90.5158141 103.2017869  43.2018168  80.3990803
 104.1135725  43.4345554  80.2238501 102.6927516  43.7855212  79.8365882
  96.0103297  45.4813655  95.4379934  96.7517981  46.0198699  95.1614758
  95.3040282  46.1079944  95.5951486 101.4858636  47.6242795  94.0352096
 101.8941992  47.1825206  93.2906728 100.7635898  47.0495423  94.2886289
  97.8389706  42.5615402  91.4085653  98.6850902  42.9854816  91.5520302
  97.7788344  41.9049027  92.1024216 101.8087451  48.1843986  87.7904385
 101.1796313  48.3489700  87.0880452 101.4213113  48.5985596  88.5615349
 105.6876683  49.1198424  85.1448748 105.0027721  49.4997325  84.5945782
 105.7720532  49.7293751  85.8780696 100.9889152  40.2219771  93.0666826
 100.7450084  40.9761831  92.5301102 101.2649082  40.6005118  93.9014073
 102.9427615  46.7658383  91.7444092 103.1544510  47.4090143  91.0678473
 102.8957363  45.9320699  91.2766022 100.5453843  39.3776204  88.6480664
  99.6838323  39.6757457  88.9397402 100.5716278  39.5946602  87.7161697
  97.3615413  47.9218394  85.0554470  97.8253758  48.2006097  84.2659092
  97.0972211  47.0201839  84.8727560  94.2539494  47.4689876  87.9934233
  94.8240851  47.8977144  87.3551717  94.8447606  47.1872460  88.6918419
  96.2984299  44.0441547  81.8644035  97.0008342  44.4962590  82.3317961
  95.9664927  43.4025365  82.4923928  94.7464660  42.6353303  96.2395244
  94.1163321  43.3169584  96.4730641  94.6400748  42.5236385  95.2948383
  90.0409633  42.3025099  87.1661168  89.2508687  42.5582628  86.6901279
  90.5320880  43.1173437  87.2713209 104.0573442  49.6430338  89.9166449
 104.8790886  49.2410526  89.6349131 104.0535845  49.5398573  90.8682565
  91.9924378  42.6669678  84.1244645  91.1955542  42.7788373  84.6428141
  91.7649971  43.0056331  83.2585536  97.8230046  49.1914382  92.0727160
  97.8874478  49.6534789  92.9085332  97.1140970  48.5611747  92.2009470
  88.3247336  42.5555590  89.5976159  88.5755374  43.4402600  89.8633735
  88.8606884  42.3760191  88.8251251 112.1479436  45.9869087  86.2651421
 111.3943144  45.4176485  86.1095425 112.2826977  45.9531751  87.2122055
  97.5378064  50.8582489  81.9406140  97.4023738  51.7034025  82.3690988
  98.0787876  51.0601767  81.1772074  94.0245403  36.9374069  98.6020495
  93.6312349  36.3840268  99.2768140  94.8411544  37.2484647  98.9927013
  90.9907461  48.3757927  82.5134065  91.5031982  49.1701177  82.6639630
  91.6430174  47.6784218  82.4467667  92.8002346  51.4923683  84.5956818
  92.9768974  52.4141648  84.4077802  93.5959179  51.1782103  85.0251198
  96.9413364  38.3531948  96.1940752  97.6823078  38.9539101  96.1145214
  97.1731287  37.6109586  95.6358794  92.0854702  43.5388315  94.4718982
  91.9708217  42.6373573  94.7726080  91.2299220  43.7852012  94.1203798
  99.1646540  51.4806056  96.0706482  98.7210394  50.6942434  95.7527387
  99.8263754  51.6685206  95.4050373  93.9233661  53.0101857  90.5967161
  94.4741086  52.8818921  89.8244155  93.0845137  53.3096746  90.2462053
 101.2627778  51.7608856  94.0987883 101.2446253  52.5817737  93.6068153
 102.1847698  51.6362931  94.3238025  97.7200832  49.2752985  94.9411392
  98.2529169  48.5141273  94.7110700  97.1914913  48.9826637  95.6835546
 100.8870527  34.3813051  90.4705034 100.5434797  35.2714693  90.3944144
 101.2549490  34.1914709  89.6074619  88.9556378  46.7046581  83.2893636
  89.7931600  47.1143590  83.0727343  89.1334645  45.7646024  83.2593830
 100.8520810  44.3721662  78.9777469 100.3367433  45.1426267  79.2165856
 100.5798118  43.6986798  79.6010530  98.4367921  39.2171363  84.0362707
  97.5809517  38.8278213  83.8568346  98.8494873  39.2963324  83.1762493
  99.9667068  36.7517706  88.4354267  99.4631863  36.7147841  87.6222072
 100.2597674  37.6610449  88.4950923  96.2109953  36.8356436  87.4420449
  97.0762950  36.6399245  87.0826338  96.2787462  36.6066788  88.3689805
 105.8255084  47.1254017  80.9130642 105.0484527  46.7865176  80.4685804
 106.5046565  47.1306640  80.2385607 100.6407113  42.2448754  80.8037250
 100.3357249  42.5594903  81.6547393 101.5937555  42.3230174  80.8464583
  99.0853545  48.4038978  82.4530204  98.5574906  47.6691737  82.1403441
  98.5841048  49.1813654  82.2070172 104.0646391  46.5987998  87.5697250
 103.4070065  47.2887259  87.6577379 104.8686790  46.9884430  87.9131236
  93.8172273  39.0658644  84.8136815  94.3916024  38.8433825  84.0810008
  94.4043255  39.1347338  85.5665417 102.8751850  44.9532371  85.6201192
 103.3883731  45.5862363  86.1222902 103.5253074  44.3533566  85.2544552
  94.1441860  41.0963105  78.8332701  93.3079172  41.4337791  79.1541975
  94.0046629  40.9612085  77.8959838  96.1194940  35.9399893  83.5411885
  95.4659353  35.6248910  82.9168500  96.0775414  35.3175633  84.2671708
  97.2306145  46.2219188  75.4565177  96.3233207  45.9908441  75.6556326
  97.7277177  45.4256807  75.6439158 100.1374224  54.9316695  78.3761863
  99.4635923  55.2348392  78.9846821 100.5240046  55.7345775  78.0267320
  99.3532681  42.4281826  87.8659532  98.4355242  42.6496773  87.7081220
  99.7692824  42.5028137  87.0071240 100.1367728  43.8273242  82.9962213
 100.8839547  44.3394639  82.6869335 100.4059318  43.5057295  83.8566606
  98.4094379  46.3231783  79.9789167  97.5005598  46.0390815  80.0761637
  98.4389462  46.7430861  79.1192474 103.6413646  49.9338372  83.7480335
 103.1875973  49.0929282  83.8045525 103.0107613  50.5699771  84.0855115
 102.5846565  40.8630358  84.9781002 101.8469322  40.3507744  85.3091245
 102.8373339  40.4230740  84.1664279 102.0846585  51.7714869  84.6830153
 102.3769560  52.3319926  83.9642518 102.5945206  52.0643430  85.4383312
 102.6858193  33.6406610  85.5722771 102.9917070  32.7803974  85.2848686
 103.4110798  34.2324230  85.3721765  88.9782549  44.0437297  83.9604369
  88.7806949  43.4506657  83.2355436  88.4229213  43.7389507  84.6780308
  96.9579273  43.9360403  86.0798962  97.0127882  42.9834240  86.0041439
  96.1470475  44.0919842  86.5640261  98.1070466  47.8640526  77.3177246
  97.6689896  47.1476385  76.8582883  98.8480907  48.0916641  76.7562337
  94.8971632  42.5537463  83.8389341  94.0839498  42.8531634  84.2454533
  95.3930627  42.1593152  84.5563823  97.0480210  52.5495220  85.7723606
  97.0056389  52.7756066  84.8432138  97.9642909  52.3158595  85.9209407
 100.4945844  43.0179287  92.6704235 100.8495232  43.2450761  93.5298701
 101.1417975  43.3497664  92.0481490 106.2243581  46.1397723  83.3753564
 106.0861480  46.3299319  82.4474753 105.8679800  46.9017106  83.8321615
  94.3885707  40.1255819  89.4550576  95.0285087  39.9844578  88.7573539
  93.5563238  39.8390332  89.0789178 106.2512961  48.2074250  88.3864836
 106.6849467  48.1149539  89.2347890 106.9644541  48.1831751  87.7484852
  95.1646011  49.4258249  85.5685569  95.9586610  48.9308569  85.3668144
  94.4537704  48.8976112  85.2053274  99.9840856  51.8076344  89.9197936
 100.0377878  52.3767281  90.6875652  99.1155637  51.9778230  89.5551973
  91.4728775  43.5701331  81.6445321  90.5426363  43.5085786  81.8615283
  91.5686247  43.0477283  80.8481963  91.3914324  40.0956144  84.2323563
  91.6521141  41.0101477  84.1232723  92.2131496  39.6280586  84.3820176
  92.8639249  41.5093901  91.4022387  93.5362302  41.3011263  90.7535036
  92.0369036  41.3115987  90.9627620 107.1128510  48.2497951  90.9197721
 107.3064400  49.1543762  91.1656996 107.0129128  47.7905370  91.7536306
  98.7664821  38.1355842  93.4188048  98.1192736  38.8345791  93.3252525
  99.5365836  38.5691986  93.7864297 102.1743619  48.4004694  96.4938602
 102.0229125  48.1715245  95.5768685 102.1648298  49.3575295  96.5069947
  98.9428955  45.9736607  91.4784868  99.8721015  46.1247766  91.3053835
  98.5219985  46.0620627  90.6233515  97.7417287  49.9987271  89.2483406
  97.6028373  49.6306055  90.1209344  96.9531883  50.5134910  89.0767363
  98.3365439  55.0996367  80.5908942  98.5117195  54.6284411  81.4054565
  97.6498227  55.7262134  80.8190203  99.2922502  49.3768874  86.6372243
  98.9572335  49.3369644  87.5329893  98.7926448  48.7113590  86.1642654
  93.2666746  44.7836504  92.1624825  93.1286544  44.0516743  92.7636364
  94.1771670  44.6945404  91.8809012 102.2281694  46.7224908  76.9109303
 101.6110865  45.9971736  76.8142356 101.7598182  47.4834268  76.5676377
  95.8949047  44.4956463  91.6508504  96.6048665  43.8549655  91.6095123
  95.8518355  44.7469358  92.5734685 103.8835826  51.4323816  94.5715083
 103.8248372  50.7483036  93.9045666 104.2855344  52.1742806  94.1195709
  94.6077981  41.4821681  93.4704144  94.0715338  41.0312419  94.1225740
  94.0194689  41.6167590  92.7274608  92.9026524  58.2485730  87.3648802
  93.1423123  58.8804254  88.0427821  92.0595721  57.8973770  87.6514162
  94.0180240  40.9410332  76.0330607  93.1409706  40.8199133  75.6692854
  94.4937993  40.1496411  75.7809496 103.8853233  49.3963400  92.8029063
 102.9980012  49.0589322  92.9255462 104.4551784  48.6646432  93.0397829
  85.5382380  45.7287492  86.1272115  86.2253420  45.4149222  85.5393130
  85.3830509  46.6328857  85.8539366  90.3417102  40.6177689  90.5557138
  90.2575291  40.0103358  89.8207548  89.5199809  41.1086707  90.5566635
  97.4154386  54.0564853  89.7690306  97.3424558  54.8619824  90.2809611
  96.9731779  54.2556818  88.9438328  97.2044166  53.2936623  83.2793128
  96.4211688  53.8358303  83.3731352  97.9036911  53.8110602  83.6787369
 100.5140816  39.1031252  85.9227333 101.0109516  38.3501214  85.6028404
  99.7427797  39.1395569  85.3570543 108.3670573  44.8071618  87.5645625
 108.3560450  45.6896333  87.1939558 107.4987953  44.4543168  87.3700162
  99.8753070  53.9551687  91.9248465 100.5881042  54.5899151  91.8524366
  99.3843098  54.0515553  91.1088467 101.5970597  47.8602939  83.4965757
 100.6626875  47.9804402  83.3270461 101.7747265  46.9575406  83.2325767
  97.0975785  41.2448635  85.6499018  96.7273572  40.6919675  86.3379923
  97.5934877  40.6406769  85.0974018 104.9843148  43.7020259  84.0315791
 105.4503600  44.5348250  83.9576093 105.4350649  43.2365240  84.7361049
  94.9264983  51.7046130  92.7454036  95.6274443  52.3382613  92.8983430
  94.4560098  52.0460862  91.9849675 103.0519379  50.0464080  81.0301943
 103.3279223  49.9320674  81.9395817 102.1823878  49.6481565  80.9914116
 102.9559811  36.0700846  88.0706692 102.0422891  36.3005072  88.2388899
 103.3852912  36.1539290  88.9220725 102.7266269  44.2590738  90.5706586
 102.0737720  44.5066645  89.9159039 103.1046649  43.4454876  90.2369063
  99.6873443  54.2950431  84.6734756  99.8695838  53.4772087  85.1362509
 100.5106429  54.5118123  84.2359646 100.0215609  53.2218616  81.9349805
 100.5503375  52.7111070  81.3219967 100.2843828  52.9061146  82.7995338
  98.7753842  45.0010549  97.0572623  98.0994479  44.9004678  97.7274998
  99.5981476  44.8449762  97.5208620  90.5232701  51.2382485  89.6785139
  91.1086138  50.4926173  89.8113043  90.3257540  51.5486442  90.5621802
  93.3771357  54.2733733  84.6947581  92.7081732  54.7579860  84.2111621
  93.2384226  54.5202953  85.6090959  85.1150356  43.8088085  88.3989582
  85.1534456  43.2751676  89.1926700  84.6090649  43.2823291  87.7800559
  97.5176625  56.3077476  91.2930239  98.0694933  56.4709098  92.0579324
  97.8582819  56.8981914  90.6210264  92.4941118  38.6552626  91.8952124
  92.5582445  39.5167457  91.4829522  92.4308239  38.0426628  91.1624482
  91.9693391  40.7275758  95.5425158  92.5965430  40.3452836  96.1562683
  91.1121310  40.5089960  95.9080851 102.3687500  51.1338734  97.1478894
 102.9127403  51.7468692  96.6533848 101.7874344  51.6918312  97.6645907
  88.7458934  42.5352188  81.4743513  89.0412375  41.6262866  81.4210567
  87.8446969  42.5139927  81.1524515 100.6545012  54.2559452  88.2793921
 100.5296152  53.4549191  87.7704867 101.3124104  54.7505645  87.7907891
  92.2753181  40.6108184  87.4571062  91.5539766  41.2244152  87.3178535
  93.0646436  41.1465949  87.3787708 102.7179921  52.0568472  89.9073471
 101.7710256  51.9373823  89.8351798 103.0662694  51.1690970  89.9899733
  95.0779494  37.9462611  93.7311713  95.6013896  38.1924907  94.4938023
  94.8591827  38.7782645  93.3114851  90.4746775  40.2166285  81.5982838
  90.1459481  39.3363664  81.4157944  90.8286146  40.1613954  82.4859227
  99.7226354  51.8521188  86.1077824  99.5751317  50.9237895  86.2885394
 100.5479848  51.8741279  85.6234899  93.5888598  40.5039255  81.9658316
  93.9284671  41.0325176  81.2436924  94.0360719  40.8419661  82.7416882
 103.3260476  52.6749747  87.1942696 104.2507023  52.4692608  87.0567148
 103.1575779  52.4266148  88.1032038  96.2832039  38.8876306  91.4161384
  95.9428860  38.0884119  91.8182064  95.5771046  39.1878017  90.8438217
  96.9348511  35.9725618  89.8688707  97.7574580  35.4986096  89.7467597
  97.1786575  36.7516102  90.3687393  95.5756746  39.0013877  80.1651609
  96.2965108  39.3795129  79.6615325  94.9522050  39.7202753  80.2686587
  99.7187868  39.7059026  81.1009941  99.9351483  40.5883663  80.7998769
  99.2381936  39.3145239  80.3715583  94.4587090  42.6644739  87.6780686
  94.3131671  42.9785042  88.5704967  93.9812293  43.2829639  87.1251584
  96.3183473  39.6547287  87.7261575  96.3045041  38.7588380  87.3893873
  97.0355901  39.6617951  88.3599861  98.1709603  40.0884627  89.7714703
  97.9127381  41.0101698  89.7699033  97.6394644  39.6915062  90.4615167
 103.1155792  53.1935414  82.5504788 103.2892670  52.6281837  81.7978640
 103.6084683  53.9936309  82.3684278  88.9332752  45.2050083  90.6168347
  88.3886220  45.9809891  90.7488621  89.8112102  45.5520888  90.4587468
  95.7220369  38.5361667  82.9949145  95.8436280  37.6078313  83.1940033
  95.4322411  38.5500353  82.0827461  98.5911559  36.2216577  86.1315865
  98.6133256  36.2855911  85.1767845  99.0079618  35.3821086  86.3256371
 108.9695183  45.9571837  84.1695088 109.4126329  45.2079162  83.7714211
 108.0921694  45.9481973  83.7868820 104.1030965  52.5102178  79.6501686
 104.7981869  53.1308871  79.8689001 104.4454115  51.6597530  79.9254064
  89.7198774  44.3319979  93.5098504  88.9780510  44.4802615  94.0963134
  89.3991518  44.5928245  92.6465253 106.0022388  49.9601884  81.1789017
 106.5273712  50.2989157  80.4538337 105.9144740  49.0248899  80.9952152
  97.6642436  53.8735958  93.3078894  97.9729563  53.6285104  94.1801593
  98.4617919  54.0782596  92.8197764  97.6863049  56.0273867  85.5384270
  97.2468039  55.5350246  86.2317127  98.4371166  55.4846835  85.2976345
  90.1655388  52.2185408  85.5408898  90.9913407  51.9189180  85.1607542
  89.8149440  51.4493031  85.9898687  95.1336921  51.5711876  87.6106572
  94.5116930  50.9082581  87.3108800  95.8041788  51.5973008  86.9280220
  88.3663993  50.1371735  86.4997832  87.5295901  49.7093909  86.3181833
  88.3387638  50.3304178  87.4368623  95.2061448  40.0493664  97.2039078
  95.2549604  40.9255787  96.8216847  95.7483962  39.5071057  96.6310721
 105.6916294  50.5934788  96.4840215 104.9011838  50.5758927  95.9444714
 105.4549648  51.1323081  97.2389252 105.8114169  47.4427254  93.7972943
 105.8612174  47.2777261  94.7388466 105.7028092  46.5754513  93.4070824
  94.6950428  50.1215800  81.0865032  94.8438548  50.8051264  80.4331705
  95.5016871  50.1020890  81.6014488 103.1017931  43.4258182  95.1132250
 104.0027794  43.2864647  94.8216248 103.1765906  43.5912637  96.0530428
  97.4360737  40.8025037  93.9585437  96.5664046  41.0958603  93.6868025
  97.6720217  41.3865482  94.6792700 107.3132366  49.8624196  94.0414965
 107.0217174  50.2254176  94.8778426 106.7004497  49.1491204  93.8628297
 108.5128048  47.4277075  86.5617535 109.3474939  47.8666879  86.7255096
 108.6487177  46.9515729  85.7425781 105.5619554  44.9856810  92.5095023
 106.0373676  45.1784456  91.7013874 104.6385119  45.0415996  92.2638407
  92.4503061  46.1480977  82.0926101  92.2049103  45.2443307  82.2906311
  92.6198975  46.1498128  81.1505579 100.1399770  37.0204654  91.4750857
 100.6581714  37.7565681  91.1497345  99.7854903  37.3268647  92.3097616
  91.7198708  41.8809335  79.5912263  91.0267953  41.9553690  78.9352299
  91.4750460  41.1169679  80.1133780 100.3912365  33.4404936  86.9951754
 100.6714118  32.7728125  87.6212180 101.1762972  33.6334032  86.4826417
  98.1945833  52.6163930  78.5576780  97.6219800  53.2354117  78.1047252
  98.7678627  53.1663292  79.0916702 104.2621223  41.8622570  90.7423329
 105.2138646  41.9620668  90.7635553 104.0924673  41.0700839  91.2521413
 102.2835602  38.9478153  90.9282730 101.6885535  39.2283166  90.2329218
 101.9985299  39.4372054  91.6999471 101.4143093  52.9001080  79.6885362
 102.3473766  52.8346642  79.8918238 101.3266306  53.7357347  79.2299895
 104.0431110  52.2166951  76.6489310 103.9644741  51.8826814  77.5425068
 104.8640776  52.7088719  76.6480782 106.7409301  45.0828690  89.8565628
 106.7085621  44.1444691  90.0425312 107.3509924  45.1612727  89.1231453
  98.5792632  43.9524743  75.8992832  99.5251736  43.8230951  75.9681250
  98.2006877  43.2139405  76.3762260 106.8903789  41.8739733  89.9023911
 106.3742838  41.0898190  89.7153840 107.7743738  41.5458450  90.0670431
 104.5514516  35.6180749  85.8619724 104.3539337  35.3095837  86.7463056
 105.1614222  36.3442388  85.9917654 112.5585851  46.1444697  88.9971665
 113.2889239  45.8829985  89.5579368 111.9492796  45.4073419  89.0373733
 110.6401148  44.2852559  89.5946116 109.9134311  44.1508524  88.9862608
 110.2248435  44.5929388  90.4002834  98.4631324  48.0042489  97.3593489
  99.3834334  48.1821088  97.5533536  98.4280907  47.0598534  97.2073189
  96.7635549  41.8774719  75.8347718  95.8567004  41.5807832  75.9110431
  97.0411530  41.5804537  74.9682004  87.6813489  43.1981083  86.2846764
  87.3616274  42.3446391  85.9921138  87.1346917  43.4129661  87.0404731
  91.4593397  45.9143524  90.0016270  91.6779406  46.8460632  90.0204304
  91.8719171  45.5551498  90.7871074  98.3797615  36.4211609  81.9891959
  97.5698343  36.0758694  82.3647205  99.0682031  36.1119153  82.5779570
 100.3088163  35.4989656  83.6116255 100.8619201  35.9185109  84.2706279
 100.5458249  34.5725404  83.6539211  96.3321262  41.4876729  99.3919019
  96.2317989  42.4371086  99.3231110  96.1142804  41.1594968  98.5195089
  95.5334333  38.7361655  75.9759697  96.3953497  39.0616553  76.2355514
  95.7184678  37.9493150  75.4632763  87.5501749  46.8183994  88.2539886
  86.8565221  46.4037947  87.7409840  88.2974740  46.8604531  87.6573304
 103.6866970  37.6090181  83.1194920 103.1065639  38.2674985  82.7372972
 103.4202903  36.7867526  82.7082337 102.1370536  37.0095239  85.3216240
 102.6370315  37.1211773  84.5130559 102.7806144  36.7056292  85.9617048
  96.1952532  44.9173868  98.2084081  95.7119614  45.7174228  98.4147970
  96.2813471  44.9281813  97.2551525  89.4638492  46.7502248  86.1305900
  89.4409180  46.8489935  85.1787783  89.7739128  47.5967399  86.4523067
  92.1225870  48.8078403  90.2452515  93.0769123  48.7762345  90.1782446
  91.9238393  48.3469027  91.0602741  92.7125252  47.3779519  92.8123312
  93.5318141  47.8723598  92.8358150  92.9862059  46.4611487  92.7840880
 102.4691848  39.7690271  82.1751268 101.5817703  40.0539922  81.9571463
 102.8845837  39.6084035  81.3278545 105.8206384  39.7936792  85.8905607
 106.5966774  40.2833245  86.1630224 105.0954518  40.2194847  86.3477477
 108.2578943  40.5064412  86.9479548 108.8523433  40.2660148  86.2372856
 108.3305526  39.7871542  87.5753084  90.4776098  54.3498023  87.2622713
  90.3430566  53.5898423  86.6960711  90.0608161  55.0738922  86.7951502
 101.6135061  49.5334946  76.2699288 102.3170911  49.7384949  76.8856944
 100.8897710  50.1011708  76.5348371 102.4432872  45.2844807  82.3901558
 102.3868073  45.7413359  81.5509191 102.9961214  44.5235492  82.2124401
 106.2537678  41.0734539  83.2151678 105.9974612  40.6731175  84.0459885
 105.6290546  41.7878333  83.0901817 110.5650015  43.8130612  85.7222969
 110.0049573  43.8823802  86.4954531 109.9593519  43.6371597  85.0022465
  93.6345224  55.2467340  87.4741155  93.5177608  56.1912772  87.3719846
  92.8137671  54.9440901  87.8626955 103.5221759  49.9717475  78.3197748
 104.3567363  49.5398674  78.1375223 103.3606102  49.7999489  79.2474643
 103.1767651  46.4749589  79.6854087 103.1216455  46.3093860  78.7442531
 102.5513706  47.1825621  79.8416277  87.9660166  41.7117653  93.5115510
  88.6119030  41.2016607  94.0002735  87.7577317  42.4486335  94.0858935
 100.4913558  48.7798500  99.0107650 101.3604718  48.9539153  98.6494285
 100.0120310  49.5992917  98.8883379  96.4863776  35.9757698  79.2639406
  96.4742446  36.9199537  79.4207677  97.3787198  35.7927843  78.9698867
  94.6599738  55.8995601  90.6897084  95.5626985  55.9319212  91.0063579
  94.4337108  54.9696052  90.7043420  96.4153340  54.6526588  87.3507162
  95.4648971  54.6528450  87.2371535  96.7185827  53.9059323  86.8343197
 100.3015896  32.5700474  83.5185343  99.5348292  32.0158961  83.6642025
 100.7126601  32.6422343  84.3799494  92.3057657  38.8585270  97.6090524
  93.1689118  38.5022075  97.8193848  91.7323068  38.5199165  98.2965928
 112.1506034  60.4887126  88.4152925 112.7884444  60.3693874  87.7116265
 112.0326877  61.4367970  88.4740877 108.9595740  60.4414554  88.3514449
 108.6214252  60.3255619  87.4634984 109.8285508  60.0405720  88.3315456
 104.8182556  62.2950031  84.3411340 104.2547421  62.2039968  83.5727628
 104.7034951  61.4749935  84.8213833 109.4415523  61.5949406  94.3100655
 109.4304164  61.2002204  93.4381159 109.6036163  60.8615479  94.9034426
 102.3646988  63.7901222  87.1795561 103.1568280  63.4492047  86.7641860
 102.6043638  63.8996198  88.0997714 110.3982115  65.9620999  79.6525805
 109.7470094  66.5475079  79.2659819 111.1926477  66.4927193  79.7120843
 104.3237742  63.0510136  80.0512940 105.0968618  62.5039123  79.9125815
 104.6763141  63.9154385  80.2627401 106.1622784  64.3786518  93.2579839
 105.8712650  65.2832149  93.1426505 106.7979769  64.4203046  93.9723909
 107.0878991  61.7563367  89.8481199 107.6842563  61.5319389  89.1338162
 107.1453963  61.0148112  90.4506646 106.6604020  59.2102802  77.6831390
 106.9129540  58.6884323  76.9214853 105.7228579  59.0468947  77.7858073
 111.7047302  58.2138580  85.4906133 112.4910392  57.7958003  85.1396550
 111.9686007  59.1184672  85.6587781 111.8757380  63.6511431  80.1894790
 111.2403213  63.7246057  80.9015694 111.5454786  64.2405029  79.5113869
 117.1055729  58.1513813  86.3939111 117.8380901  57.5813030  86.6276941
 116.3495085  57.7635414  86.8345617 106.3800308  61.1130908  79.8855765
 106.2636566  60.4375811  80.5536849 106.4902568  60.6263282  79.0687918
 108.7231849  60.5741055  83.5902454 108.3590056  60.0471676  84.3015375
 109.5798965  60.1839524  83.4168939 114.6281150  51.8635388  90.8533720
 114.2964475  52.7330798  90.6294935 114.0326763  51.5471672  91.5327750
 108.3637336  55.6030955  78.5863802 108.5311739  56.4711191  78.9534273
 108.1734505  55.7658236  77.6625092 111.1212669  64.0647934  90.2529633
 110.8213392  64.9672972  90.1445440 110.7763729  63.7980117  91.1050786
 104.5725151  60.5161730  86.2866337 103.6475647  60.3837944  86.4944029
 104.8209564  61.2955950  86.7836279 114.5209813  56.5830474  87.9327070
 113.6126690  56.5145882  87.6385831 114.4697409  57.0602419  88.7608895
 108.3426557  58.0588612  79.5710469 108.2226182  58.5045663  80.4095949
 107.6479145  58.4073930  79.0124007 101.9333962  60.1595004  87.1210126
 102.0626343  60.4129483  88.0349538 101.2531413  60.7522712  86.8014781
 106.1033449  70.8292254  83.2200600 106.0257479  71.7800079  83.2989081
 105.4995093  70.4838126  83.8775527 108.5950679  58.0020119  95.8761967
 107.8184013  58.5614039  95.8664832 109.2341242  58.4876902  96.3976837
 116.3871460  54.7846912  89.7104944 115.7445840  55.0779445  89.0644738
 115.8826388  54.6699832  90.5158141 114.0411623  58.5310085  80.3990803
 114.9529479  58.7637472  80.2238501 113.5321270  59.1147129  79.8365882
 106.8497051  60.8105573  95.4379934 107.5911736  61.3490617  95.1614758
 106.1434037  61.4371861  95.5951486 112.3252391  62.9534713  94.0352096
 112.7335747  62.5117124  93.2906728 111.6029652  62.3787341  94.2886289
 108.6783461  57.8907320  91.4085653 109.5244656  58.3146733  91.5520302
 108.6182099  57.2340944  92.1024216 112.6481206  63.5135904  87.7904385
 112.0190068  63.6781618  87.0880452 112.2606868  63.9277513  88.5615349
 116.5270437  64.4490342  85.1448748 115.8421476  64.8289243  84.5945782
 116.6114287  65.0585668  85.8780696 111.8282906  55.5511688  93.0666826
 111.5843838  56.3053749  92.5301102 112.1042837  55.9297036  93.9014073
 113.7821369  62.0950301  91.7444092 113.9938264  62.7382061  91.0678473
 113.7351117  61.2612617  91.2766022 111.3847598  54.7068121  88.6480664
 110.5232077  55.0049375  88.9397402 111.4110033  54.9238520  87.7161697
 108.2009167  63.2510312  85.0554470 108.6647513  63.5298015  84.2659092
 107.9365966  62.3493756  84.8727560 105.0933248  62.7981793  87.9934233
 105.6634606  63.2269062  87.3551717 105.6841360  62.5164378  88.6918419
 107.1378053  59.3733464  81.8644035 107.8402097  59.8254508  82.3317961
 106.8058682  58.7317283  82.4923928 105.5858415  57.9645221  96.2395244
 104.9557076  58.6461502  96.4730641 105.4794503  57.8528302  95.2948383
 100.8803387  57.6317017  87.1661168 100.0902441  57.8874545  86.6901279
 101.3714635  58.4465355  87.2713209 114.8967197  64.9722256  89.9166449
 115.7184641  64.5702443  89.6349131 114.8929600  64.8690490  90.8682565
 102.8318133  57.9961596  84.1244645 102.0349296  58.1080290  84.6428141
 102.6043725  58.3348248  83.2585536 108.6623800  64.5206299  92.0727160
 108.7268233  64.9826707  92.9085332 107.9534724  63.8903664  92.2009470
  99.1641090  57.8847507  89.5976159  99.4149129  58.7694517  89.8633735
  99.7000639  57.7052109  88.8251251 108.3771818  66.1874407  81.9406140
 108.2417493  67.0325943  82.3690988 108.9181631  66.3893684  81.1772074
 104.8639158  52.2665987  98.6020495 104.4706103  51.7132185  99.2768140
 105.6805298  52.5776565  98.9927013 101.8301215  63.7049845  82.5134065
 102.3425736  64.4993095  82.6639630 102.4823928  63.0076135  82.4467667
 103.6396100  66.8215601  84.5956818 103.8162729  67.7433566  84.4077802
 104.4352934  66.5074020  85.0251198 107.7807119  53.6823866  96.1940752
 108.5216832  54.2831019  96.1145214 108.0125042  52.9401504  95.6358794
 102.9248457  58.8680233  94.4718982 102.8101972  57.9665490  94.7726080
 102.0692974  59.1143930  94.1203798 110.0040294  66.8097973  96.0706482
 109.5604149  66.0234352  95.7527387 110.6657508  66.9977124  95.4050373
 104.7627416  68.3393775  90.5967161 105.3134841  68.2110838  89.8244155
 103.9238892  68.6388664  90.2462053 112.1021533  67.0900773  94.0987883
 112.0840008  67.9109654  93.6068153 113.0241453  66.9654848  94.3238025
 108.5594587  64.6044903  94.9411392 109.0922923  63.8433191  94.7110700
 108.0308668  64.3118555  95.6835546 111.7264282  49.7104969  90.4705034
 111.3828551  50.6006610  90.3944144 112.0943244  49.5206626  89.6074619
  99.7950132  62.0338499  83.2893636 100.6325354  62.4435508  83.0727343
  99.9728400  61.0937941  83.2593830 111.6914564  59.7013580  78.9777469
 111.1761188  60.4718184  79.2165856 111.4191873  59.0278716  79.6010530
 109.2761675  54.5463281  84.0362707 108.4203272  54.1570131  83.8568346
 109.6888627  54.6255241  83.1762493 110.8060822  52.0809624  88.4354267
 110.3025618  52.0439759  87.6222072 111.0991429  52.9902367  88.4950923
 107.0503708  52.1648354  87.4420449 107.9156705  51.9691162  87.0826338
 107.1181217  51.9358705  88.3689805 116.6648838  62.4545934  80.9130642
 115.8878281  62.1157094  80.4685804 117.3440319  62.4598558  80.2385607
 111.4800868  57.5740672  80.8037250 111.1751003  57.8886821  81.6547393
 112.4331310  57.6522092  80.8464583 109.9247299  63.7330895  82.4530204
 109.3968661  62.9983655  82.1403441 109.4234802  64.5105572  82.2070172
 114.9040145  61.9279916  87.5697250 114.2463820  62.6179177  87.6577379
 115.7080545  62.3176348  87.9131236 104.6566027  54.3950562  84.8136815
 105.2309779  54.1725743  84.0810008 105.2437009  54.4639256  85.5665417
 113.7145604  60.2824288  85.6201192 114.2277486  60.9154280  86.1222902
 114.3646828  59.6825484  85.2544552 104.9835614  56.4255023  78.8332701
 104.1472926  56.7629709  79.1541975 104.8440384  56.2904002  77.8959838
 106.9588695  51.2691810  83.5411885 106.3053107  50.9540828  82.9168500
 106.9169169  50.6467551  84.2671708 108.0699900  61.5511105  75.4565177
 107.1626961  61.3200359  75.6556326 108.5670932  60.7548725  75.6439158
 110.9767978  70.2608613  78.3761863 110.3029677  70.5640309  78.9846821
 111.3633800  71.0637693  78.0267320 110.1926435  57.7573744  87.8659532
 109.2748996  57.9788691  87.7081220 110.6086579  57.8320054  87.0071240
 110.9761483  59.1565160  82.9962213 111.7233302  59.6686557  82.6869335
 111.2453072  58.8349212  83.8566606 109.2488133  61.6523700  79.9789167
 108.3399352  61.3682733  80.0761637 109.2783217  62.0722779  79.1192474
 114.4807400  65.2630290  83.7480335 114.0269728  64.4221200  83.8045525
 113.8501367  65.8991688  84.0855115 113.4240320  56.1922276  84.9781002
 112.6863077  55.6799662  85.3091245 113.6767094  55.7522657  84.1664279
 112.9240340  67.1006787  84.6830153 113.2163314  67.6611844  83.9642518
 113.4338960  67.3935348  85.4383312 113.5251947  48.9698528  85.5722771
 113.8310824  48.1095891  85.2848686 114.2504552  49.5616148  85.3721765
  99.8176303  59.3729214  83.9604369  99.6200703  58.7798575  83.2355436
  99.2622967  59.0681425  84.6780308 107.7973027  59.2652321  86.0798962
 107.8521637  58.3126157  86.0041439 106.9864229  59.4211760  86.5640261
 108.9464221  63.1932444  77.3177246 108.5083651  62.4768303  76.8582883
 109.6874662  63.4208559  76.7562337 105.7365387  57.8829381  83.8389341
 104.9233253  58.1823551  84.2454533 106.2324381  57.4885069  84.5563823
 107.8873965  67.8787138  85.7723606 107.8450144  68.1047984  84.8432138
 108.8036664  67.6450512  85.9209407 111.3339599  58.3471205  92.6704235
 111.6888986  58.5742678  93.5298701 111.9811730  58.6789582  92.0481490
 117.0637336  61.4689641  83.3753564 116.9255234  61.6591237  82.4474753
 116.7073554  62.2309024  83.8321615 105.2279462  55.4547736  89.4550576
 105.8678841  55.3136495  88.7573539 104.3956992  55.1682250  89.0789178
 117.0906715  63.5366168  88.3864836 117.5243222  63.4441457  89.2347890
 117.8038296  63.5123669  87.7484852 106.0039766  64.7550167  85.5685569
 106.7980364  64.2600487  85.3668144 105.2931458  64.2268030  85.2053274
 110.8234610  67.1368262  89.9197936 110.8771632  67.7059198  90.6875652
 109.9549391  67.3070147  89.5551973 102.3122529  58.8993248  81.6445321
 101.3820117  58.8377704  81.8615283 102.4080001  58.3769201  80.8481963
 102.2308078  55.4248061  84.2323563 102.4914895  56.3393394  84.1232723
 103.0525250  54.9572504  84.3820176 103.7033003  56.8385818  91.4022387
 104.3756057  56.6303181  90.7535036 102.8762790  56.6407904  90.9627620
 117.9522265  63.5789869  90.9197721 118.1458155  64.4835679  91.1656996
 117.8522883  63.1197288  91.7536306 109.6058575  53.4647759  93.4188048
 108.9586491  54.1637709  93.3252525 110.3759591  53.8983903  93.7864297
 113.0137373  63.7296611  96.4938602 112.8622880  63.5007163  95.5768685
 113.0042053  64.6867213  96.5069947 109.7822710  61.3028524  91.4784868
 110.7114770  61.4539684  91.3053835 109.3613740  61.3912545  90.6233515
 108.5811042  65.3279189  89.2483406 108.4422127  64.9597973  90.1209344
 107.7925638  65.8426828  89.0767363 109.1759194  70.4288285  80.5908942
 109.3510949  69.9576328  81.4054565 108.4891982  71.0554051  80.8190203
 110.1316257  64.7060791  86.6372243 109.7966089  64.6661561  87.5329893
 109.6320202  64.0405507  86.1642654 104.1060501  60.1128421  92.1624825
 103.9680299  59.3808660  92.7636364 105.0165424  60.0237321  91.8809012
 113.0675448  62.0516826  76.9109303 112.4504619  61.3263654  76.8142356
 112.5991937  62.8126186  76.5676377 106.7342801  59.8248381  91.6508504
 107.4442420  59.1841573  91.6095123 106.6912110  60.0761276  92.5734685
 114.7229580  66.7615734  94.5715083 114.6642126  66.0774954  93.9045666
 115.1249098  67.5034724  94.1195709 105.4471735  56.8113599  93.4704144
 104.9109092  56.3604337  94.1225740 104.8588444  56.9459507  92.7274608
 103.7420279  73.5777648  87.3648802 103.9816877  74.2096172  88.0427821
 102.8989475  73.2265688  87.6514162 104.8573994  56.2702250  76.0330607
 103.9803461  56.1491051  75.6692854 105.3331747  55.4788328  75.7809496
 114.7246987  64.7255318  92.8029063 113.8373766  64.3881240  92.9255462
 115.2945538  63.9938349  93.0397829  96.3776134  61.0579410  86.1272115
  97.0647174  60.7441140  85.5393130  96.2224263  61.9620774  85.8539366
 101.1810857  55.9469606  90.5557138 101.0969045  55.3395276  89.8207548
 100.3593563  56.4378625  90.5566635 108.2548141  69.3856770  89.7690306
 108.1818312  70.1911742  90.2809611 107.8125534  69.5848736  88.9438328
 108.0437920  68.6228540  83.2793128 107.2605442  69.1650221  83.3731352
 108.7430666  69.1402520  83.6787369 111.3534570  54.4323170  85.9227333
 111.8503270  53.6793132  85.6028404 110.5821552  54.4687486  85.3570543
 119.2064328  60.1363535  87.5645625 119.1954204  61.0188251  87.1939558
 118.3381707  59.7835086  87.3700162 110.7146824  69.2843604  91.9248465
 111.4274796  69.9191069  91.8524366 110.2236853  69.3807470  91.1088467
 112.4364351  63.1894857  83.4965757 111.5020630  63.3096319  83.3270461
 112.6141020  62.2867324  83.2325767 107.9369539  56.5740553  85.6499018
 107.5667327  56.0211593  86.3379923 108.4328632  55.9698686  85.0974018
 115.8236903  59.0312176  84.0315791 116.2897355  59.8640168  83.9576093
 116.2744403  58.5657158  84.7361049 105.7658738  67.0338048  92.7454036
 106.4668197  67.6674531  92.8983430 105.2953853  67.3752779  91.9849675
 113.8913134  65.3755998  81.0301943 114.1672978  65.2612592  81.9395817
 113.0217632  64.9773482  80.9914116 113.7953565  51.3992763  88.0706692
 112.8816645  51.6296990  88.2388899 114.2246667  51.4831207  88.9220725
 113.5660024  59.5882655  90.5706586 112.9131474  59.8358563  89.9159039
 113.9440404  58.7746793  90.2369063 110.5267198  69.6242348  84.6734756
 110.7089592  68.8064004  85.1362509 111.3500184  69.8410041  84.2359646
 110.8609363  68.5510534  81.9349805 111.3897130  68.0402988  81.3219967
 111.1237583  68.2353064  82.7995338 109.6147597  60.3302466  97.0572623
 108.9388234  60.2296596  97.7274998 110.4375231  60.1741680  97.5208620
 101.3626456  66.5674403  89.6785139 101.9479893  65.8218091  89.8113043
 101.1651294  66.8778360  90.5621802 104.2165111  69.6025650  84.6947581
 103.5475486  70.0871778  84.2111621 104.0777981  69.8494871  85.6090959
  95.9544111  59.1380003  88.3989582  95.9928210  58.6043594  89.1926700
  95.4484403  58.6115209  87.7800559 108.3570380  71.6369394  91.2930239
 108.9088688  71.8001015  92.0579324 108.6976573  72.2273832  90.6210264
 103.3334873  53.9844544  91.8952124 103.3976199  54.8459374  91.4829522
 103.2701993  53.3718545  91.1624482 102.8087145  56.0567676  95.5425158
 103.4359184  55.6744753  96.1562683 101.9515064  55.8381878  95.9080851
 113.2081254  66.4630651  97.1478894 113.7521158  67.0760610  96.6533848
 112.6268099  67.0210230  97.6645907  99.5852688  57.8644105  81.4743513
  99.8806129  56.9554784  81.4210567  98.6840724  57.8431845  81.1524515
 111.4938767  69.5851369  88.2793921 111.3689906  68.7841109  87.7704867
 112.1517858  70.0797563  87.7907891 103.1146935  55.9400102  87.4571062
 102.3933521  56.5536069  87.3178535 103.9040191  56.4757867  87.3787708
 113.5573675  67.3860389  89.9073471 112.6104011  67.2665741  89.8351798
 113.9056448  66.4982887  89.9899733 105.9173249  53.2754528  93.7311713
 106.4407651  53.5216825  94.4938023 105.6985582  54.1074563  93.3114851
 101.3140530  55.5458203  81.5982838 100.9853236  54.6655582  81.4157944
 101.6679900  55.4905872  82.4859227 110.5620109  67.1813106  86.1077824
 110.4145071  66.2529813  86.2885394 111.3873602  67.2033196  85.6234899
 104.4282353  55.8331173  81.9658316 104.7678425  56.3617094  81.2436924
 104.8754473  56.1711579  82.7416882 114.1654230  68.0041664  87.1942696
 115.0900778  67.7984526  87.0567148 113.9969534  67.7558065  88.1032038
 107.1225794  54.2168223  91.4161384 106.7822614  53.4176036  91.8182064
 106.4164800  54.5169934  90.8438217 107.7742266  51.3017536  89.8688707
 108.5968335  50.8278014  89.7467597 108.0180329  52.0808020  90.3687393
 106.4150500  54.3305794  80.1651609 107.1358863  54.7087047  79.6615325
 105.7915804  55.0494671  80.2686587 110.5581623  55.0350943  81.1009941
 110.7745237  55.9175581  80.7998769 110.0775690  54.6437157  80.3715583
 105.2980844  57.9936656  87.6780686 105.1525425  58.3076960  88.5704967
 104.8206048  58.6121557  87.1251584 107.1577227  54.9839204  87.7261575
 107.1438796  54.0880298  87.3893873 107.8749655  54.9909868  88.3599861
 109.0103358  55.4176545  89.7714703 108.7521136  56.3393615  89.7699033
 108.4788398  55.0206979  90.4615167 113.9549547  68.5227332  82.5504788
 114.1286424  67.9573754  81.7978640 114.4478438  69.3228227  82.3684278
  99.7726506  60.5342001  90.6168347  99.2279975  61.3101809  90.7488621
 100.6505856  60.8812805  90.4587468 106.5614123  53.8653585  82.9949145
 106.6830034  52.9370231  83.1940033 106.2716166  53.8792271  82.0827461
 109.4305314  51.5508495  86.1315865 109.4527010  51.6147828  85.1767845
 109.8473373  50.7113004  86.3256371 119.8088938  61.2863755  84.1695088
 120.2520084  60.5371080  83.7714211 118.9315448  61.2773891  83.7868820
 114.9424719  67.8394096  79.6501686 115.6375624  68.4600789  79.8689001
 115.2847869  66.9889447  79.9254064 100.5592528  59.6611897  93.5098504
  99.8174264  59.8094532  94.0963134 100.2385273  59.9220163  92.6465253
 116.8416142  65.2893802  81.1789017 117.3667466  65.6281074  80.4538337
 116.7538495  64.3540817  80.9952152 108.5036191  69.2027875  93.3078894
 108.8123317  68.9577022  94.1801593 109.3011673  69.4074514  92.8197764
 108.5256803  71.3565785  85.5384270 108.0861793  70.8642164  86.2317127
 109.2764920  70.8138753  85.2976345 101.0049142  67.5477326  85.5408898
 101.8307162  67.2481098  85.1607542 100.6543194  66.7784948  85.9898687
 105.9730675  66.9003794  87.6106572 105.3510684  66.2374499  87.3108800
 106.6435542  66.9264926  86.9280220  99.2057747  65.4663652  86.4997832
  98.3689655  65.0385827  86.3181833  99.1781392  65.6596096  87.4368623
 106.0455203  55.3785582  97.2039078 106.0943358  56.2547705  96.8216847
 106.5877717  54.8362975  96.6310721 116.5310048  65.9226705  96.4840215
 115.7405592  65.9050844  95.9444714 116.2943403  66.4614999  97.2389252
 116.6507923  62.7719172  93.7972943 116.7005928  62.6069179  94.7388466
 116.5421847  61.9046431  93.4070824 105.5344182  65.4507717  81.0865032
 105.6832302  66.1343182  80.4331705 106.3410626  65.4312807  81.6014488
 113.9411686  58.7550100  95.1132250 114.8421549  58.6156565  94.8216248
 114.0159660  58.9204555  96.0530428 108.2754491  56.1316954  93.9585437
 107.4057801  56.4250521  93.6868025 108.5113971  56.7157399  94.6792700
 118.1526120  65.1916113  94.0414965 117.8610929  65.5546094  94.8778426
 117.5398252  64.4783122  93.8628297 119.3521803  62.7568993  86.5617535
 120.1868694  63.1958797  86.7255096 119.4880931  62.2807646  85.7425781
 116.4013308  60.3148728  92.5095023 116.8767430  60.5076374  91.7013874
 115.4778874  60.3707914  92.2638407 103.2896815  61.4772895  82.0926101
 103.0442857  60.5735225  82.2906311 103.4592730  61.4790045  81.1505579
 110.9793525  52.3496571  91.4750857 111.4975469  53.0857598  91.1497345
 110.6248658  52.6560565  92.3097616 102.5592463  57.2101253  79.5912263
 101.8661708  57.2845608  78.9352299 102.3144215  56.4461596  80.1133780
 111.2306119  48.7696854  86.9951754 111.5107873  48.1020043  87.6212180
 112.0156726  48.9625950  86.4826417 109.0339588  67.9455848  78.5576780
 108.4613555  68.5646035  78.1047252 109.6072381  68.4955210  79.0916702
 115.1014977  57.1914488  90.7423329 116.0532400  57.2912586  90.7635553
 114.9318428  56.3992756  91.2521413 113.1229357  54.2770071  90.9282730
 112.5279289  54.5575084  90.2329218 112.8379054  54.7663972  91.6999471
 112.2536847  68.2292998  79.6885362 113.1867521  68.1638560  79.8918238
 112.1660060  69.0649265  79.2299895 114.8824864  67.5458868  76.6489310
 114.8038496  67.2118732  77.5425068 115.7034531  68.0380636  76.6480782
 117.5803055  60.4120608  89.8565628 117.5479375  59.4736608  90.0425312
 118.1903679  60.4904644  89.1231453 109.4186386  59.2816661  75.8992832
 110.3645491  59.1522869  75.9681250 109.0400631  58.5431323  76.3762260
 117.7297544  57.2031651  89.9023911 117.2136592  56.4190108  89.7153840
 118.6137492  56.8750368  90.0670431 115.3908271  50.9472667  85.8619724
 115.1933092  50.6387755  86.7463056 116.0007976  51.6734306  85.9917654
 109.3025079  63.3334407  97.3593489 110.2228088  63.5113006  97.5533536
 109.2674662  62.3890452  97.2073189 107.6029303  57.2066637  75.8347718
 106.6960759  56.9099750  75.9110431 107.8805284  56.9096455  74.9682004
  98.5207244  58.5273000  86.2846764  98.2010028  57.6738309  85.9921138
  97.9740672  58.7421579  87.0404731 102.2987151  61.2435441  90.0016270
 102.5173161  62.1752549  90.0204304 102.7112925  60.8843416  90.7871074
 109.2191369  51.7503527  81.9891959 108.4092097  51.4050612  82.3647205
 109.9075786  51.4411070  82.5779570 111.1481917  50.8281574  83.6116255
 111.7012956  51.2477027  84.2706279 111.3852004  49.9017322  83.6539211
 107.1715017  56.8168647  99.3919019 107.0711743  57.7663004  99.3231110
 106.9536559  56.4886886  98.5195089 106.3728088  54.0653572  75.9759697
 107.2347252  54.3908471  76.2355514 106.5578432  53.2785068  75.4632763
  98.3895504  62.1475912  88.2539886  97.6958975  61.7329865  87.7409840
  99.1368495  62.1896448  87.6573304 114.5260724  52.9382099  83.1194920
 113.9459393  53.5966903  82.7372972 114.2596657  52.1159443  82.7082337
 112.9764291  52.3387156  85.3216240 113.4764069  52.4503691  84.5130559
 113.6199899  52.0348209  85.9617048 107.0346287  60.2465786  98.2084081
 106.5513368  61.0466146  98.4147970 107.1207226  60.2573731  97.2551525
 100.3032246  62.0794166  86.1305900 100.2802934  62.1781853  85.1787783
 100.6132883  62.9259316  86.4523067 102.9619624  64.1370321  90.2452515
 103.9162878  64.1054263  90.1782446 102.7632148  63.6760944  91.0602741
 103.5519006  62.7071437  92.8123312 104.3711895  63.2015515  92.8358150
 103.8255814  61.7903405  92.7840880 113.3085602  55.0982189  82.1751268
 112.4211457  55.3831840  81.9571463 113.7239591  54.9375952  81.3278545
 116.6600139  55.1228710  85.8905607 117.4360529  55.6125162  86.1630224
 115.9348273  55.5486764  86.3477477 119.0972697  55.8356329  86.9479548
 119.6917188  55.5952065  86.2372856 119.1699281  55.1163460  87.5753084
 101.3169853  69.6789940  87.2622713 101.1824321  68.9190341  86.6960711
 100.9001915  70.4030840  86.7951502 112.4528816  64.8626864  76.2699288
 113.1564666  65.0676866  76.8856944 111.7291465  65.4303626  76.5348371
 113.2826626  60.6136725  82.3901558 113.2261828  61.0705276  81.5509191
 113.8354969  59.8527410  82.2124401 117.0931432  56.4026457  83.2151678
 116.8368366  56.0023093  84.0459885 116.4684300  57.1170251  83.0901817
 104.4738979  70.5759257  87.4741155 104.3571363  71.5204690  87.3719846
 103.6531425  70.2732819  87.8626955 114.3615513  65.3009393  78.3197748
 115.1961117  64.8690591  78.1375223 114.1999856  65.1291407  79.2474643
 114.0161405  61.8041506  79.6854087 113.9610209  61.6385778  78.7442531
 113.3907461  62.5117539  79.8416277  98.8053920  57.0409571  93.5115510
  99.4512784  56.5308525  94.0002735  98.5971072  57.7778252  94.0858935
 111.3307313  64.1090418  99.0107650 112.1998472  64.2831070  98.6494285
 110.8514064  64.9284835  98.8883379 107.3257531  51.3049615  79.2639406
 107.3136201  52.2491455  79.4207677 108.2180953  51.1219761  78.9698867
 105.4993493  71.2287519  90.6897084 106.4020740  71.2611129  91.0063579
 105.2730863  70.2987970  90.7043420 107.2547095  69.9818506  87.3507162
 106.3042726  69.9820367  87.2371535 107.5579581  69.2351240  86.8343197
 111.1409650  47.8992392  83.5185343 110.3742046  47.3450879  83.6642025
 111.5520355  47.9714261  84.3799494 103.1451411  54.1877188  97.6090524
 104.0082873  53.8313993  97.8193848 102.5716822  53.8491083  98.2965928
 115.6576310  77.6241949  84.3411340 115.0941175  77.5331885  83.5727628
 115.5428705  76.8041853  84.8213833 120.2809278  76.9241324  94.3100655
 120.2697918  76.5294122  93.4381159 120.4429917  76.1907396  94.9034426
 113.2040742  79.1193140  87.1795561 113.9962034  78.7783965  86.7641860
 113.4437392  79.2288115  88.0997714 115.1631496  78.3802053  80.0512940
 115.9362372  77.8331040  79.9125815 115.5156895  79.2446303  80.2627401
 117.0016539  79.7078436  93.2579839 116.7106405  80.6124067  93.1426505
 117.6373523  79.7494963  93.9723909 117.9272746  77.0855284  89.8481199
 118.5236318  76.8611307  89.1338162 117.9847717  76.3440030  90.4506646
 117.4997774  74.5394720  77.6831390 117.7523295  74.0176241  76.9214853
 116.5622333  74.3760865  77.7858073 117.2194063  76.4422825  79.8855765
 117.1030321  75.7667729  80.5536849 117.3296323  75.9555199  79.0687918
 119.5625604  75.9032973  83.5902454 119.1983811  75.3763594  84.3015375
 120.4192720  75.5131442  83.4168939 119.2031091  70.9322872  78.5863802
 119.3705493  71.8003109  78.9534273 119.0128260  71.0950154  77.6625092
 115.4118905  75.8453648  86.2866337 114.4869402  75.7129862  86.4944029
 115.6603319  76.6247867  86.7836279 119.1820312  73.3880530  79.5710469
 119.0619937  73.8337581  80.4095949 118.4872900  73.7365847  79.0124007
 112.7727716  75.4886922  87.1210126 112.9020098  75.7421401  88.0349538
 112.0925168  76.0814630  86.8014781 116.9427204  86.1584172  83.2200600
 116.8651233  87.1091997  83.2989081 116.3388847  85.8130044  83.8775527
 119.4344433  73.3312037  95.8761967 118.6577767  73.8905957  95.8664832
 120.0734996  73.8168820  96.3976837 117.6890806  76.1397490  95.4379934
 118.4305490  76.6782534  95.1614758 116.9827791  76.7663779  95.5951486
 119.5177215  73.2199238  91.4085653 120.3638411  73.6438651  91.5520302
 119.4575853  72.5632862  92.1024216 119.0402922  78.5802229  85.0554470
 119.5041267  78.8589932  84.2659092 118.7759720  77.6785674  84.8727560
 115.9327003  78.1273711  87.9934233 116.5028360  78.5560979  87.3551717
 116.5235115  77.8456296  88.6918419 117.9771808  74.7025382  81.8644035
 118.6795851  75.1546426  82.3317961 117.6452436  74.0609201  82.4923928
 116.4252169  73.2937138  96.2395244 115.7950830  73.9753419  96.4730641
 116.3188257  73.1820220  95.2948383 111.7197142  72.9608935  87.1661168
 110.9296196  73.2166463  86.6901279 112.2108389  73.7757272  87.2713209
 113.6711887  73.3253514  84.1244645 112.8743051  73.4372208  84.6428141
 113.4437479  73.6640166  83.2585536 119.5017555  79.8498217  92.0727160
 119.5661987  80.3118624  92.9085332 118.7928479  79.2195582  92.2009470
 110.0034845  73.2139425  89.5976159 110.2542883  74.0986435  89.8633735
 110.5394393  73.0344027  88.8251251 119.2165573  81.5166324  81.9406140
 119.0811247  82.3617860  82.3690988 119.7575385  81.7185602  81.1772074
 115.7032912  67.5957904  98.6020495 115.3099858  67.0424103  99.2768140
 116.5199053  67.9068483  98.9927013 112.6694970  79.0341763  82.5134065
 113.1819491  79.8285013  82.6639630 113.3217683  78.3368053  82.4467667
 114.4789855  82.1507519  84.5956818 114.6556483  83.0725484  84.4077802
 115.2746688  81.8365938  85.0251198 118.6200873  69.0115783  96.1940752
 119.3610587  69.6122937  96.1145214 118.8518796  68.2693421  95.6358794
 113.7642211  74.1972151  94.4718982 113.6495726  73.2957408  94.7726080
 112.9086729  74.4435847  94.1203798 115.6021170  83.6685693  90.5967161
 116.1528595  83.5402756  89.8244155 114.7632646  83.9680582  90.2462053
 119.3988341  79.9336820  94.9411392 119.9316678  79.1725109  94.7110700
 118.8702422  79.6410472  95.6835546 110.6343887  77.3630417  83.2893636
 111.4719109  77.7727425  83.0727343 110.8122154  76.4229859  83.2593830
 117.8897462  67.4940271  87.4420449 118.7550459  67.2983080  87.0826338
 117.9574971  67.2650623  88.3689805 115.4959781  69.7242479  84.8136815
 116.0703533  69.5017661  84.0810008 116.0830764  69.7931174  85.5665417
 115.8229369  71.7546940  78.8332701 114.9866681  72.0921627  79.1541975
 115.6834138  71.6195920  77.8959838 117.7982449  66.5983728  83.5411885
 117.1446862  66.2832745  82.9168500 117.7562923  65.9759469  84.2671708
 118.9093654  76.8803023  75.4565177 118.0020716  76.6492277  75.6556326
 119.4064686  76.0840642  75.6439158 120.0881887  76.9815618  79.9789167
 119.1793107  76.6974651  80.0761637 120.1176971  77.4014697  79.1192474
 110.6570058  74.7021132  83.9604369 110.4594458  74.1090493  83.2355436
 110.1016722  74.3973342  84.6780308 118.6366782  74.5944239  86.0798962
 118.6915391  73.6418075  86.0041439 117.8257984  74.7503678  86.5640261
 116.5759141  73.2121298  83.8389341 115.7627007  73.5115469  84.2454533
 117.0718136  72.8176987  84.5563823 118.7267719  83.2079055  85.7723606
 118.6843898  83.4339902  84.8432138 119.6430418  82.9742430  85.9209407
 116.0673216  70.7839654  89.4550576 116.7072596  70.6428413  88.7573539
 115.2350747  70.4974167  89.0789178 116.8433520  80.0842084  85.5685569
 117.6374119  79.5892404  85.3668144 116.1325213  79.5559947  85.2053274
 113.1516284  74.2285166  81.6445321 112.2213872  74.1669622  81.8615283
 113.2473756  73.7061119  80.8481963 113.0701833  70.7539979  84.2323563
 113.3308650  71.6685312  84.1232723 113.8919005  70.2864421  84.3820176
 114.5426758  72.1677736  91.4022387 115.2149811  71.9595098  90.7535036
 113.7156544  71.9699822  90.9627620 119.4204796  80.6571106  89.2483406
 119.2815882  80.2889891  90.1209344 118.6319392  81.1718746  89.0767363
 120.0152948  85.7580203  80.5908942 120.1904704  85.2868246  81.4054565
 119.3285736  86.3845969  80.8190203 114.9454255  75.4420339  92.1624825
 114.8074053  74.7100578  92.7636364 115.8559179  75.3529239  91.8809012
 117.5736556  75.1540298  91.6508504 118.2836174  74.5133491  91.6095123
 117.5305864  75.4053193  92.5734685 116.2865490  72.1405516  93.4704144
 115.7502847  71.6896255  94.1225740 115.6982198  72.2751425  92.7274608
 114.5814033  88.9069566  87.3648802 114.8210632  89.5388090  88.0427821
 113.7383230  88.5557606  87.6514162 115.6967749  71.5994168  76.0330607
 114.8197215  71.4782968  75.6692854 116.1725502  70.8080246  75.7809496
 107.2169889  76.3871327  86.1272115 107.9040929  76.0733057  85.5393130
 107.0618018  77.2912692  85.8539366 112.0204611  71.2761524  90.5557138
 111.9362800  70.6687193  89.8207548 111.1987318  71.7670542  90.5566635
 119.0941895  84.7148688  89.7690306 119.0212067  85.5203659  90.2809611
 118.6519288  84.9140654  88.9438328 118.8831675  83.9520458  83.2793128
 118.0999197  84.4942138  83.3731352 119.5824420  84.4694438  83.6787369
 118.7763294  71.9032470  85.6499018 118.4061081  71.3503511  86.3379923
 119.2722386  71.2990604  85.0974018 116.6052492  82.3629965  92.7454036
 117.3061952  82.9966448  92.8983430 116.1347607  82.7044697  91.9849675
 112.2020210  81.8966321  89.6785139 112.7873647  81.1510008  89.8113043
 112.0045049  82.2070277  90.5621802 115.0558866  84.9317568  84.6947581
 114.3869241  85.4163696  84.2111621 114.9171735  85.1786788  85.6090959
 106.7937865  74.4671921  88.3989582 106.8321965  73.9335511  89.1926700
 106.2878158  73.9407126  87.7800559 119.1964134  86.9661311  91.2930239
 119.7482442  87.1292933  92.0579324 119.5370328  87.5565749  90.6210264
 114.1728627  69.3136461  91.8952124 114.2369954  70.1751292  91.4829522
 114.1095748  68.7010463  91.1624482 113.6480900  71.3859594  95.5425158
 114.2752939  71.0036671  96.1562683 112.7908819  71.1673796  95.9080851
 110.4246443  73.1936023  81.4743513 110.7199884  72.2846701  81.4210567
 109.5234478  73.1723762  81.1524515 113.9540690  71.2692019  87.4571062
 113.2327275  71.8827987  87.3178535 114.7433945  71.8049784  87.3787708
 116.7567003  68.6046446  93.7311713 117.2801405  68.8508742  94.4938023
 116.5379336  69.4366481  93.3114851 112.1534284  70.8750121  81.5982838
 111.8246990  69.9947499  81.4157944 112.5073655  70.8197789  82.4859227
 115.2676107  71.1623090  81.9658316 115.6072180  71.6909012  81.2436924
 115.7148228  71.5003496  82.7416882 117.9619548  69.5460141  91.4161384
 117.6216369  68.7467954  91.8182064 117.2558554  69.8461852  90.8438217
 118.6136020  66.6309453  89.8688707 119.4362089  66.1569932  89.7467597
 118.8574084  67.4099937  90.3687393 117.2544255  69.6597712  80.1651609
 117.9752617  70.0378965  79.6615325 116.6309559  70.3786589  80.2686587
 116.1374599  73.3228574  87.6780686 115.9919180  73.6368877  88.5704967
 115.6599802  73.9413474  87.1251584 117.9970982  70.3131122  87.7261575
 117.9832550  69.4172215  87.3893873 118.7143410  70.3201786  88.3599861
 119.8497112  70.7468462  89.7714703 119.5914890  71.6685533  89.7699033
 119.3182153  70.3498897  90.4615167 110.6120261  75.8633919  90.6168347
 110.0673729  76.6393726  90.7488621 111.4899611  76.2104723  90.4587468
 117.4007878  69.1945502  82.9949145 117.5223789  68.2662149  83.1940033
 117.1109920  69.2084188  82.0827461 111.3986283  74.9903815  93.5098504
 110.6568019  75.1386450  94.0963134 111.0779027  75.2512080  92.6465253
 119.3429945  84.5319793  93.3078894 119.6517072  84.2868940  94.1801593
 120.1405427  84.7366431  92.8197764 119.3650558  86.6857703  85.5384270
 118.9255548  86.1934081  86.2317127 120.1158674  86.1430670  85.2976345
 111.8442897  82.8769244  85.5408898 112.6700916  82.5773015  85.1607542
 111.4936949  82.1076866  85.9898687 116.8124430  82.2295712  87.6106572
 116.1904439  81.5666417  87.3108800 117.4829297  82.2556844  86.9280220
 110.0451502  80.7955570  86.4997832 109.2083410  80.3677744  86.3181833
 110.0175147  80.9888013  87.4368623 116.8848957  70.7077500  97.2039078
 116.9337113  71.5839623  96.8216847 117.4271471  70.1654893  96.6310721
 116.3737937  80.7799635  81.0865032 116.5226057  81.4635099  80.4331705
 117.1804380  80.7604725  81.6014488 119.1148246  71.4608872  93.9585437
 118.2451555  71.7542438  93.6868025 119.3507726  72.0449317  94.6792700
 114.1290570  76.8064813  82.0926101 113.8836612  75.9027143  82.2906311
 114.2986484  76.8081963  81.1505579 113.3986217  72.5393170  79.5912263
 112.7055462  72.6137525  78.9352299 113.1537969  71.7753514  80.1133780
 119.8733342  83.2747766  78.5576780 119.3007309  83.8937953  78.1047252
 120.4466136  83.8247127  79.0916702 118.4423058  72.5358555  75.8347718
 117.5354513  72.2391667  75.9110431 118.7199039  72.2388373  74.9682004
 109.3600998  73.8564918  86.2846764 109.0403782  73.0030226  85.9921138
 108.8134426  74.0713496  87.0404731 113.1380906  76.5727359  90.0016270
 113.3566915  77.5044467  90.0204304 113.5506680  76.2135333  90.7871074
 118.0108771  72.1460565  99.3919019 117.9105498  73.0954922  99.3231110
 117.7930313  71.8178804  98.5195089 117.2121842  69.3945490  75.9759697
 118.0741006  69.7200388  76.2355514 117.3972187  68.6076986  75.4632763
 109.2289258  77.4767830  88.2539886 108.5352730  77.0621782  87.7409840
 109.9762249  77.5188366  87.6573304 117.8740041  75.5757704  98.2084081
 117.3907123  76.3758064  98.4147970 117.9600980  75.5865649  97.2551525
 111.1426001  77.4086083  86.1305900 111.1196689  77.5073771  85.1787783
 111.4526637  78.2551234  86.4523067 113.8013379  79.4662238  90.2452515
 114.7556632  79.4346181  90.1782446 113.6025902  79.0052862  91.0602741
 114.3912761  78.0363354  92.8123312 115.2105650  78.5307433  92.8358150
 114.6649568  77.1195323  92.7840880 112.1563607  85.0081858  87.2622713
 112.0218075  84.2482259  86.6960711 111.7395670  85.7322758  86.7951502
 115.3132733  85.9051175  87.4741155 115.1965117  86.8496607  87.3719846
 114.4925179  85.6024736  87.8626955 109.6447675  72.3701488  93.5115510
 110.2906539  71.8600442  94.0002735 109.4364826  73.1070170  94.0858935
 118.1651285  66.6341533  79.2639406 118.1529955  67.5783373  79.4207677
 119.0574707  66.4511678  78.9698867 116.3387247  86.5579437  90.6897084
 117.2414494  86.5903047  91.0063579 116.1124617  85.6279888  90.7043420
 118.0940849  85.3110423  87.3507162 117.1436480  85.3112285  87.2371535
 118.3973336  84.5643158  86.8343197 113.9845166  69.5169105  97.6090524
 114.8476627  69.1605910  97.8193848 113.4110577  69.1783000  98.2965928
 118.0563643  91.7163245  86.1272115 118.7434683  91.4024975  85.5393130
 117.9011772  92.6204610  85.8539366 117.6331620  89.7963838  88.3989582
 117.6715719  89.2627429  89.1926700 117.1271912  89.2699044  87.7800559
 120.1994753  89.1856836  86.2846764 119.8797537  88.3322144  85.9921138
 119.6528181  89.4005414  87.0404731  73.5852187   1.8478623  69.9445907
  73.5076217   2.7986449  70.0234388  72.9813831   1.5024496  70.6020833
  71.2239017   4.5964017  74.0894109  71.4635615   5.2282542  74.7673128
  70.3808213   4.2452057  74.3759468  75.8389117   2.6555763  78.0175546
  76.3907425   2.8187385  78.7824631  76.1795311   3.2460201  77.3455571
  68.7988591   0.6976310  73.9868019  68.6643059  -0.0623289  73.4206017
  68.3820653   1.4217210  73.5196808  71.9557717   1.5945627  74.1986462
  71.8390101   2.5391059  74.0965152  71.1350163   1.2919188  74.5872261
  72.9812231   2.2473889  77.4142390  73.8839477   2.2797499  77.7308885
  72.7549601   1.3174340  77.4288726  83.1395048   8.6428318  71.0656647
  82.5759913   8.5518255  70.2972935  83.0247443   7.8228223  71.5459140
  87.7628015   7.9427693  81.0345962  87.7516656   7.5480492  80.1626465
  87.9248655   7.2093766  81.6279733  80.6859480  10.1379510  73.9040868
  81.4780772   9.7970334  73.4887167  80.9256130  10.2474485  74.8243021
  88.7194607  12.3099286  66.3771112  88.0682587  12.8953366  65.9905126
  89.5138970  12.8405481  66.4366149  82.6450234   9.3988423  66.7758246
  83.4181110   8.8517410  66.6371122  82.9975633  10.2632672  66.9872708
  84.4835277  10.7264805  79.9825146  84.1925143  11.6310436  79.8671812
  85.1192261  10.7681333  80.6969215  85.4091483   8.1041654  76.5726505
  86.0055056   7.8797676  75.8583468  85.4666455   7.3626399  77.1751953
  90.1969872   9.9989718  66.9140096  89.5615705  10.0724344  67.6261001
  89.8667278  10.5883317  66.2359176  84.7012801   7.4609195  66.6101071
  84.5849059   6.7854098  67.2782155  84.8115060   6.9741569  65.7933224
  89.4425162  10.4126221  76.9774939  89.1425885  11.3151260  76.8690747
  89.0976221  10.1458404  77.8296092  82.8937643   6.8640018  73.0111644
  81.9688140   6.7316232  73.2189335  83.1422056   7.6434237  73.5081586
  80.2546454   6.5073291  73.8455433  80.3838835   6.7607770  74.7594845
  79.5743905   7.1000999  73.5260088  84.4245941  17.1770541  69.9445907
  84.3469971  18.1278366  70.0234388  83.8207585  16.8316414  70.6020833
  85.1709544   7.1583860  82.1625241  85.9124228   7.6968904  81.8860065
  84.4646529   7.7850149  82.3196793  90.6464883   9.3013000  80.7597402
  91.0548239   8.8595411  80.0152035  89.9242145   8.7265628  81.0131595
  90.9693698   9.8614191  74.5149691  90.3402560  10.0259905  73.8125759
  90.5819360  10.2755801  75.2860655  94.8482930  10.7968629  71.8694055
  94.1633968  11.1767530  71.3191088  94.9326779  11.4063955  72.6026003
  86.5221660   9.5988599  71.7799776  86.9860005   9.8776302  70.9904399
  86.2578458   8.6972044  71.5972867  83.4145741   9.1460081  74.7179540
  83.9847098   9.5747349  74.0797024  84.0053853   8.8642665  75.4163725
  79.2015880   3.9795304  73.8906475  78.4114934   4.2352833  73.4146586
  79.6927127   4.7943642  73.9958516  93.2179689  11.3200543  76.6411756
  94.0397133  10.9180731  76.3594438  93.2142092  11.2168777  77.5927872
  81.1530625   4.3439883  70.8489952  80.3561788   4.4558578  71.3673447
  80.9256217   4.6826536  69.9830842  86.9836293  10.8684587  78.7972466
  87.0480725  11.3304994  79.6330638  86.2747217  10.2381951  78.9254776
  77.4853583   4.2325795  76.3221466  77.7361621   5.1172804  76.5879042
  78.0213131   4.0530396  75.5496558  86.6984310  12.5352694  68.6651447
  86.5629985  13.3804230  69.0936295  87.2394123  12.7371972  67.9017381
  80.1513708  10.0528132  69.2379372  80.6638228  10.8471382  69.3884936
  80.8036421   9.3554423  69.1712973  81.9608592  13.1693888  71.3202125
  82.1375221  14.0911853  71.1323109  82.7565426  12.8552308  71.7496505
  81.2460949   5.2158520  81.1964288  81.1314464   4.3143777  81.4971387
  80.3905467   5.4622217  80.8449105  88.3252787  13.1576261  82.7951789
  87.8816641  12.3712639  82.4772693  88.9870000  13.3455411  82.1295680
  83.0839908  14.6872062  77.3212467  83.6347333  14.5589126  76.5489461
  82.2451384  14.9866951  76.9707360  90.4234025  13.4379060  80.8233190
  90.4052500  14.2587942  80.3313459  91.3453945  13.3133136  81.0483331
  86.8807079  10.9523190  81.6656698  87.4135416  10.1911478  81.4356006
  86.3521160  10.6596842  82.4080853  78.1162625   8.3816786  70.0138942
  78.9537847   8.7913795  69.7972650  78.2940892   7.4416229  69.9839136
  88.2459792  10.0809182  69.1775510  87.7181153   9.3461942  68.8648748
  87.7447294  10.8583859  68.9315479  86.3912392   7.8989393  62.1810483
  85.4839454   7.6678646  62.3801632  86.8883424   7.1027012  62.3684465
  89.2980471  16.6086900  65.1007170  88.6242169  16.9118597  65.7092127
  89.6846293  17.4115980  64.7512627  87.5700625   8.0001988  66.7034474
  86.6611845   7.7161020  66.8006943  87.5995709   8.4201066  65.8437780
  92.8019893  11.6108577  70.4725641  92.3482220  10.7699487  70.5290832
  92.1713859  12.2469975  70.8100421  91.2452832  13.4485074  71.4075459
  91.5375806  14.0090131  70.6887825  91.7551453  13.7413635  72.1628618
  78.1388796   5.7207502  70.6849676  77.9413195   5.1276862  69.9600742
  77.5835460   5.4159712  71.4025615  87.2676713   9.5410731  64.0422552
  86.8296143   8.8246590  63.5828189  88.0087154   9.7686846  63.4807644
  86.2086457  14.2265425  72.4968912  86.1662636  14.4526271  71.5677445
  87.1249156  13.9928799  72.6454714  95.4119207   9.8844455  75.1110142
  95.8455714   9.7919744  75.9593196  96.1250788   9.8601956  74.4730158
  84.3252258  11.1028454  72.2930875  85.1192856  10.6078774  72.0913450
  83.6143950  10.5746317  71.9298581  89.1447102  13.4846549  76.6443243
  89.1984125  14.0537486  77.4120959  88.2761884  13.6548434  76.2797280
  80.6335021   5.2471536  68.3690628  79.7032609   5.1855991  68.5860590
  80.7292493   4.7247488  67.5727269  91.3349866  10.0774899  83.2183908
  91.1835372   9.8485450  82.3013992  91.3254545  11.0345500  83.2315253
  88.1035202   7.6506811  78.2030175  89.0327262   7.8017971  78.0299142
  87.6826232   7.7390832  77.3478821  86.9023534  11.6757476  75.9728712
  86.7634620  11.3076260  76.8454650  86.1138130  12.1905115  75.8012670
  87.4971686  16.7766572  67.3154249  87.6723442  16.3054616  68.1299872
  86.8104474  17.4032339  67.5435510  88.4528749  11.0539079  73.3617550
  88.1178582  11.0139849  74.2575200  87.9532695  10.3883794  72.8887960
  82.4272993   6.4606709  78.8870131  82.2892791   5.7286947  79.4881670
  83.3377916   6.3715609  78.6054319  91.3887941   8.3995113  63.6354610
  90.7717111   7.6741941  63.5387662  90.9204429   9.1604473  63.2921684
  93.0442072  13.1094021  81.2960390  92.9854619  12.4253241  80.6290973
  93.4461591  13.8513011  80.8441016  82.0632771  19.9255935  74.0894109
  82.3029369  20.5574459  74.7673128  81.2201968  19.5743975  74.3759468
  93.0459480  11.0733605  79.5274370  92.1586258  10.7359527  79.6500769
  93.6158031  10.3416636  79.7643135  74.6988627   7.4057697  72.8517421
  75.3859667   7.0919427  72.2638436  74.5436755   8.3099062  72.5784673
  86.5760633  15.7335058  76.4935613  86.5030805  16.5390029  77.0054918
  86.1338026  15.9327023  75.6683634  86.3650413  14.9706828  70.0038435
  85.5817935  15.5128508  70.0976659  87.0643158  15.4880807  70.4032676
  89.0359317  15.6321892  78.6493772  89.7487289  16.2669356  78.5769673
  88.5449345  15.7285758  77.8333773  90.7576843   9.5373144  70.2211063
  89.8233122   9.6574607  70.0515768  90.9353512   8.6345611  69.9571073
  84.0871230  13.3816335  79.4699342  84.7880690  14.0152818  79.6228737
  83.6166345  13.7231067  78.7094982  92.2125626  11.7234285  67.7547249
  92.4885470  11.6090879  68.6641124  91.3430125  11.3251770  67.7159423
  88.8479690  15.9720636  71.3980063  89.0302084  15.1542292  71.8607815
  89.6712676  16.1888328  70.9604953  89.1821855  14.8988821  68.6595112
  89.7109622  14.3881275  68.0465274  89.4450075  14.5831351  69.5240645
  79.6838948  12.9152690  76.4030445  80.2692385  12.1696378  76.5358349
  79.4863787  13.2256647  77.2867109  82.5377603  15.9503937  71.4192888
  81.8687979  16.4350065  70.9356928  82.3990473  16.1973158  72.3336266
  74.2756603   5.4858290  75.1234888  74.3140702   4.9521881  75.9172006
  73.7696896   4.9593496  74.5045865  86.6782872  17.9847681  78.0175546
  87.2301180  18.1479302  78.7824631  87.0189065  18.5752119  77.3455571
  91.5293746  12.8108939  83.8724200  92.0733650  13.4238897  83.3779155
  90.9480591  13.3688517  84.3891213  77.9065180   4.2122392  68.1988820
  78.2018622   3.3033071  68.1455873  77.0053216   4.1910132  67.8769822
  89.8151259  15.9329657  75.0039228  89.6902399  15.1319396  74.4950174
  90.4730350  16.4275850  74.5153198  91.8786168  13.7338677  76.6318778
  90.9316503  13.6144028  76.5597105  92.2268941  12.8461175  76.7145040
  88.8832601  13.5291393  72.8323130  88.7357563  12.6008100  73.0130700
  89.7086094  13.5511484  72.3480206  92.4866723  14.3519952  73.9188003
  93.4113270  14.1462813  73.7812454  92.3182026  14.1036353  74.8277345
  92.2762039  14.8705619  69.2750095  92.4498916  14.3052041  68.5223947
  92.7690930  15.6706514  69.0929585  78.0938999   6.8820288  77.3413653
  77.5492467   7.6580096  77.4733928  78.9718349   7.2291093  77.1832775
  93.2637211  14.1872383  66.3746993  93.9588116  14.8079076  66.5934308
  93.6060362  13.3367735  66.6499371  78.8805021   6.0090184  80.2343810
  78.1386757   6.1572820  80.8208441  78.5597765   6.2698450  79.3710560
  95.1628635  11.6372089  67.9034324  95.6879959  11.9759362  67.1783644
  95.0750987  10.7019104  67.7197458  86.8248683  15.5506163  80.0324200
  87.1335810  15.3055309  80.9046900  87.6224165  15.7552801  79.5443070
  86.8469295  17.7044072  72.2629577  86.4074286  17.2120451  72.9562434
  87.5977412  17.1617040  72.0221652  79.3261634  13.8955613  72.2654205
  80.1519654  13.5959385  71.8852848  78.9755686  13.1263236  72.7143994
  84.2943167  13.2482081  74.3351878  83.6723177  12.5852786  74.0354106
  84.9648034  13.2743213  73.6525526  77.5270239  11.8141940  73.2243138
  76.6902148  11.3864114  73.0427140  77.4993885  12.0074383  74.1613930
  94.8522541  12.2704993  83.2085522  94.0618084  12.2529131  82.6690021
  94.6155895  12.8093286  83.9634558  83.8556674  11.7986005  67.8110339
  84.0044795  12.4821469  67.1577012  84.6623118  11.7791095  68.3259795
  96.4738613  11.5394400  80.7660272  96.1823421  11.9024381  81.6023733
  95.8610744  10.8261409  80.5873604  81.6109307   7.8251182  68.8171408
  81.3655349   6.9213512  69.0151618  81.7805222   7.8268333  67.8750886
  87.3552080  14.2934135  65.2822086  86.7826047  14.9124322  64.8292558
  87.9284874  14.8433497  65.8162008  90.5749340  14.5771285  66.4130669
  91.5080013  14.5116847  66.6163544  90.4872553  15.4127552  65.9545201
  93.2037356  13.8937156  63.3734616  93.1250988  13.5597019  64.2670374
  94.0247023  14.3858923  63.3726089  87.6237571   9.6812694  84.0838796
  88.5440580   9.8591293  84.2778842  87.5887154   8.7368739  83.9318495
  76.8419736   4.8751288  73.0092071  76.5222520   4.0216596  72.7166445
  76.2953164   5.0899866  73.7650038  80.6199643   7.5913729  76.7261577
  80.8385653   8.5230836  76.7449611  81.0325417   7.2321703  77.5116381
  76.7107996   8.4954199  74.9785192  76.0171467   8.0808152  74.4655147
  77.4580987   8.5374736  74.3818611  85.3558779   6.5944073  84.9329388
  84.8725861   7.3944433  85.1393277  85.4419718   6.6052018  83.9796832
  78.6244738   8.4272453  72.8551207  78.6015427   8.5260140  71.9033090
  78.9345375   9.2737604  73.1768373  81.2832116  10.4848608  76.9697821
  82.2375370  10.4532550  76.9027753  81.0844640  10.0239232  77.7848047
  81.8731498   9.0549724  79.5368619  82.6924387   9.5493803  79.5603456
  82.1468306   8.1381692  79.5086187  79.6382345  16.0268227  73.9868019
  79.5036813  15.2668628  73.4206017  79.2214407  16.7509127  73.5196808
  90.7741308  11.2105151  62.9944595  91.4777158  11.4155153  63.6102250
  90.0503957  11.7781913  63.2593678  82.7951471  16.9237544  74.1986462
  82.6783855  17.8682977  74.0965152  81.9743917  16.6211106  74.5872261
  92.6828006  11.6487680  65.0443055  93.5173609  11.2168879  64.8620529
  92.5212348  11.4769694  65.9719949  89.6519805  10.4568705  85.7352957
  90.5210965  10.6309358  85.3739592  89.1726556  11.2763122  85.6128686
  83.8205985  17.5765806  77.4142390  84.7233232  17.6089417  77.7308885
  83.5943355  16.6466257  77.4288726  85.5759587  16.3296793  74.0752469
  84.6255218  16.3298654  73.9616841  85.8792073  15.5829527  73.5588504
 101.3112281  22.1657331  75.1398231 101.9490691  22.0464079  74.4361571
 101.1933124  23.1138175  75.1986184  98.1201987  22.1184759  75.0759756
  97.7820498  22.0025824  74.1880291  98.9891755  21.7175924  75.0560762
  93.9788803  23.9720236  71.0656647  93.4153668  23.8810173  70.2972935
  93.8641198  23.1520140  71.5459140  98.6021770  23.2719611  81.0345962
  98.5910411  22.8772409  80.1626465  98.7642409  22.5385684  81.6279733
  91.5253235  25.4671427  73.9040868  92.3174526  25.1262252  73.4887167
  91.7649885  25.5766402  74.8243021  99.5588361  27.6391203  66.3771112
  98.9076341  28.2245284  65.9905126 100.3532724  28.1697398  66.4366149
  93.4843988  24.7280341  66.7758246  94.2574864  24.1809328  66.6371122
  93.8369387  25.5924590  66.9872708  95.3229031  26.0556723  79.9825146
  95.0318897  26.9602354  79.8671812  95.9586015  26.0973251  80.6969215
  96.2485238  23.4333571  76.5726505  96.8448810  23.2089594  75.8583468
  96.3060209  22.6918317  77.1751953  95.8210266  20.8873007  64.4076696
  96.0735787  20.3654528  63.6460159  94.8834825  20.7239152  64.5103380
 100.8653549  19.8908785  72.2151439 101.6516638  19.4728208  71.8641856
 101.1292253  20.7954877  72.3833088 101.0363626  25.3281635  66.9140096
 100.4009459  25.4016262  67.6261001 100.7061033  25.9175234  66.2359176
 106.2661976  19.8284018  73.1184418 106.9987148  19.2583235  73.3522247
 105.5101332  19.4405619  73.5590924  95.5406555  22.7901113  66.6101071
  95.4242813  22.1146016  67.2782155  95.6508815  22.3033487  65.7933224
  97.8838096  22.2511260  70.3147760  97.5196303  21.7241881  71.0260682
  98.7405212  21.8609729  70.1414246 103.7887397  13.5405592  77.5779027
 103.4570721  14.4101003  77.3540242 103.1933010  13.2241876  78.2573057
  97.5243583  17.2801160  65.3109109  97.6917985  18.1481396  65.6779580
  97.3340752  17.4428441  64.3870398 100.2818916  25.7418138  76.9774939
  99.9819639  26.6443177  76.8690747  99.9369976  25.4750322  77.8296092
  93.7331398  22.1931935  73.0111644  92.8081894  22.0608149  73.2189335
  93.9815811  22.9726155  73.5081586 103.6816060  18.2600679  74.6572377
 102.7732937  18.1916087  74.3631138 103.6303656  18.7372624  75.4854202
  97.5032804  19.7358817  66.2955776  97.3832429  20.1815868  67.1341256
  96.8085392  20.0844135  65.7369314  91.0940209  21.8365209  73.8455433
  91.2232590  22.0899688  74.7594845  90.4137660  22.4292917  73.5260088
  95.2639696  32.5062459  69.9445907  95.1863726  33.4570284  70.0234388
  94.6601340  32.1608331  70.6020833  97.7556926  19.6790324  82.6007274
  96.9790260  20.2384244  82.5910139  98.3947489  20.1647107  83.1222144
 105.5477706  16.4617117  76.4350251 104.9052087  16.7549650  75.7890045
 105.0432635  16.3470037  77.2403447 103.2017870  20.2080290  67.1236110
 104.1135726  20.4407677  66.9483807 102.6927517  20.7917334  66.5611188
  96.0103298  22.4875778  82.1625241  96.7517982  23.0260822  81.8860065
  95.3040283  23.1142066  82.3196793 101.4858638  24.6304918  80.7597402
 101.8941994  24.1887329  80.0152035 100.7635899  24.0557546  81.0131595
  97.8389708  19.5677525  78.1330959  98.6850903  19.9916938  78.2765608
  97.7788345  18.9111149  78.8269522 101.8087452  25.1906109  74.5149691
 101.1796315  25.3551823  73.8125759 101.4213114  25.6047718  75.2860655
 105.6876684  26.1260547  71.8694055 105.0027722  26.5059448  71.3191088
 105.7720534  26.7355873  72.6026003 100.9889153  17.2281893  79.7912133
 100.7450085  17.9823954  79.2546409 101.2649084  17.6067241  80.6259380
 102.9427616  23.7720506  78.4689399 103.1544511  24.4152265  77.7923780
 102.8957364  22.9382822  78.0011329 100.5453845  16.3838326  75.3725971
  99.6838324  16.6819580  75.6642708 100.5716279  16.6008725  74.4407003
  97.3615414  24.9280517  71.7799776  97.8253760  25.2068220  70.9904399
  97.0972212  24.0263961  71.5972867  94.2539495  24.4751998  74.7179540
  94.8240852  24.9039267  74.0797024  94.8447607  24.1934583  75.4163725
  96.2984300  21.0503669  68.5889342  97.0008344  21.5024713  69.0563268
  95.9664929  20.4087488  69.2169235  94.7464662  19.6415426  82.9640551
  94.1163322  20.3231707  83.1975948  94.6400750  19.5298507  82.0193689
  90.0409634  19.3087222  73.8906475  89.2508688  19.5644750  73.4146586
  90.5320882  20.1235560  73.9958516 104.0573444  26.6492461  76.6411756
 104.8790887  26.2472648  76.3594438 104.0535847  26.5460695  77.5927872
  91.9924380  19.6731801  70.8489952  91.1955543  19.7850495  71.3673447
  91.7649972  20.0118453  69.9830842  97.8230047  26.1976504  78.7972466
  97.8874480  26.6596911  79.6330638  97.1140971  25.5673869  78.9254776
  88.3247337  19.5617712  76.3221466  88.5755376  20.4464722  76.5879042
  88.8606886  19.3822314  75.5496558 112.1479437  22.9931209  72.9896727
 111.3943145  22.4238608  72.8340732 112.2826978  22.9593874  73.9367362
  97.5378065  27.8644612  68.6651447  97.4023740  28.7096147  69.0936295
  98.0787877  28.0663889  67.9017381  94.0245404  13.9436192  85.3265802
  93.6312350  13.3902390  86.0013446  94.8411545  14.2546770  85.7172319
  90.9907462  25.3820050  69.2379372  91.5031983  26.1763300  69.3884936
  91.6430175  24.6846340  69.1712973  92.8002347  28.4985806  71.3202125
  92.9768975  29.4203771  71.1323109  93.5959180  28.1844225  71.7496505
  96.9413365  15.3594071  82.9186059  97.6823079  15.9601224  82.8390521
  97.1731288  14.6171708  82.3604101  92.0854703  20.5450438  81.1964288
  91.9708219  19.6435695  81.4971387  91.2299221  20.7914135  80.8449105
  99.1646541  28.4868178  82.7951789  98.7210395  27.7004557  82.4772693
  99.8263755  28.6747329  82.1295680  93.9233662  30.0163980  77.3212467
  94.4741088  29.8881043  76.5489461  93.0845138  30.3158869  76.9707360
 101.2627779  28.7670978  80.8233190 101.2446255  29.5879859  80.3313459
 102.1847699  28.6425053  81.0483331  97.7200833  26.2815108  81.6656698
  98.2529170  25.5203396  81.4356006  97.1914915  25.9888759  82.4080853
  88.9556379  23.7108704  70.0138942  89.7931601  24.1205712  69.7972650
  89.1334647  22.7708146  69.9839136 100.8520811  21.3783785  65.7022775
 100.3367435  22.1488389  65.9411163 100.5798120  20.7048921  66.3255837
  98.4367922  16.2233486  70.7608014  97.5809519  15.8340336  70.5813652
  98.8494874  16.3025446  69.9007799  99.9667069  13.7579829  75.1599573
  99.4631864  13.7209964  74.3467379 100.2597676  14.6672571  75.2196230
  96.2109955  13.8418558  74.1665755  97.0762951  13.6461367  73.8071645
  96.2787464  13.6128910  75.0935112 105.8255085  24.1316139  67.6375949
 105.0484528  23.7927299  67.1931111 106.5046566  24.1368763  66.9630914
 100.6407114  19.2510877  67.5282556 100.3357250  19.5657026  68.3792700
 101.5937556  19.3292297  67.5709889  99.0853546  25.4101100  69.1775510
  98.5574908  24.6753860  68.8648748  98.5841049  26.1875776  68.9315479
 104.0646392  23.6050121  74.2942557 103.4070067  24.2949382  74.3822685
 104.8686791  23.9946553  74.6376543  93.8172274  16.0720766  71.5382122
  94.3916026  15.8495948  70.8055315  94.4043256  16.1409461  72.2910723
 102.8751851  21.9594493  72.3446499 103.3883733  22.5924485  72.8468208
 103.5253075  21.3595689  71.9789859  94.1441861  18.1025227  65.5578007
  93.3079173  18.4399914  65.8787282  94.0046631  17.9674207  64.6205144
  96.1194941  12.9462015  70.2657191  95.4659354  12.6311032  69.6413806
  96.0775416  12.3237756  70.9917014  97.2306146  23.2281310  62.1810483
  96.3233208  22.9970564  62.3801632  97.7277178  22.4318930  62.3684465
 100.1374225  31.9378818  65.1007170  99.4635924  32.2410514  65.7092127
 100.5240047  32.7407898  64.7512627  99.3532682  19.4343949  74.5904839
  98.4355243  19.6558896  74.4326527  99.7692825  19.5090259  73.7316546
 100.1367730  20.8335365  69.7207519 100.8839549  21.3456762  69.4114641
 100.4059319  20.5119417  70.5811913  98.4094380  23.3293905  66.7034474
  97.5005599  23.0452938  66.8006943  98.4389464  23.7492984  65.8437780
 103.6413647  26.9400495  70.4725641 103.1875974  26.0991405  70.5290832
 103.0107614  27.5761893  70.8100421 102.5846567  17.8692481  71.7026309
 101.8469324  17.3569867  72.0336551 102.8373340  17.4292862  70.8909585
 102.0846586  28.7776991  71.4075459 102.3769561  29.3382049  70.6887825
 102.5945207  29.0705552  72.1628618  88.9782550  21.0499419  70.6849676
  88.7806950  20.4568780  69.9600742  88.4229214  20.7451630  71.4025615
  96.9579274  20.9422526  72.8044269  97.0127884  19.9896362  72.7286746
  96.1470476  21.0981965  73.2885567  98.1070468  24.8702649  64.0422552
  97.6689898  24.1538508  63.5828189  98.8480908  25.0978764  63.4807644
  94.8971634  19.5599586  70.5634648  94.0839499  19.8593756  70.9699840
  95.3930628  19.1655274  71.2809130  97.0480212  29.5557343  72.4968912
  97.0056390  29.7818189  71.5677445  97.9642910  29.3220717  72.6454714
 100.4945845  20.0241410  79.3949542 100.8495233  20.2512883  80.2544007
 101.1417977  20.3559787  78.7726797 106.2243582  23.1459846  70.0998871
 106.0861481  23.3361442  69.1720060 105.8679801  23.9079229  70.5566922
  94.3885708  17.1317941  76.1795883  95.0285088  16.9906700  75.4818846
  93.5563239  16.8452455  75.8034485 106.2512962  25.2136373  75.1110142
 106.6849469  25.1211662  75.9593196 106.9644543  25.1893873  74.4730158
  95.1646012  26.4320372  72.2930875  95.9586611  25.9370692  72.0913450
  94.4537705  25.9038235  71.9298581  99.9840857  28.8138467  76.6443243
 100.0377879  29.3829403  77.4120959  99.1155638  28.9840352  76.2797280
  91.4728776  20.5763453  68.3690628  90.5426364  20.5147909  68.5860590
  91.5686248  20.0539406  67.5727269  91.3914325  17.1018266  70.9568870
  91.6521142  18.0163599  70.8478030  92.2131497  16.6342709  71.1065482
  92.8639250  18.5156023  78.1267694  93.5362304  18.3073385  77.4780343
  92.0369037  18.3178109  77.6872926 107.1128512  25.2560074  77.6443028
 107.3064402  26.1605884  77.8902303 107.0129130  24.7967493  78.4781613
  98.7664822  15.1417964  80.1433355  98.1192737  15.8407914  80.0497831
  99.5365838  15.5754108  80.5109603 102.1743620  25.4066816  83.2183908
 102.0229127  25.1777368  82.3013992 102.1648300  26.3637418  83.2315253
  98.9428957  22.9798729  78.2030175  99.8721017  23.1309889  78.0299142
  98.5219987  23.0682750  77.3478821  97.7417288  27.0049394  75.9728712
  97.6028374  26.6368178  76.8454650  96.9531885  27.5197033  75.8012670
  98.3365440  32.1058490  67.3154249  98.5117196  31.6346533  68.1299872
  97.6498228  32.7324256  67.5435510  99.2922504  26.3830996  73.3617550
  98.9572336  26.3431766  74.2575200  98.7926449  25.7175712  72.8887960
  93.2666748  21.7898626  78.8870131  93.1286545  21.0578865  79.4881670
  94.1771671  21.7007526  78.6054319 102.2281695  23.7287031  63.6354610
 101.6110866  23.0033859  63.5387662 101.7598184  24.4896391  63.2921684
  95.8949048  21.5018586  78.3753811  96.6048667  20.8611778  78.3340429
  95.8518356  21.7531480  79.2979992 103.8835827  28.4385939  81.2960390
 103.8248373  27.7545159  80.6290973 104.2855345  29.1804929  80.8441016
  94.6077982  18.4883803  80.1949450  94.0715339  18.0374542  80.8471047
  94.0194691  18.6229712  79.4519915  92.9026526  35.2547853  74.0894109
  93.1423124  35.8866377  74.7673128  92.0595722  34.9035893  74.3759468
  94.0180241  17.9472455  62.7575914  93.1409707  17.8261256  62.3938161
  94.4937994  17.1558533  62.5054803 103.8853234  26.4025523  79.5274370
 102.9980013  26.0651445  79.6500769 104.4551785  25.6708554  79.7643135
  85.5382381  22.7349615  72.8517421  86.2253421  22.4211345  72.2638436
  85.3830510  23.6390979  72.5784673  90.3417103  17.6239811  77.2802445
  90.2575292  17.0165481  76.5452855  89.5199810  18.1148829  77.2811941
  97.4154388  31.0626975  76.4935613  97.3424559  31.8681947  77.0054918
  96.9731781  31.2618941  75.6683634  97.2044167  30.2998745  70.0038435
  96.4211689  30.8420425  70.0976659  97.9036912  30.8172725  70.4032676
 100.5140817  16.1093375  72.6472640 101.0109517  15.3563337  72.3273710
  99.7427799  16.1457691  72.0815849 108.3670575  21.8133740  74.2890931
 108.3560451  22.6958456  73.9184865 107.4987954  21.4605291  74.0945468
  99.8753071  30.9613809  78.6493772 100.5881043  31.5961274  78.5769673
  99.3843100  31.0577675  77.8333773 101.5970598  24.8665062  70.2211063
 100.6626877  24.9866524  70.0515768 101.7747266  23.9637529  69.9571073
  97.0975786  18.2510758  72.3744325  96.7273574  17.6981798  73.0625230
  97.5934878  17.6468891  71.8219325 104.9843149  20.7082381  70.7561097
 105.4503601  21.5410373  70.6821400 105.4350650  20.2427363  71.4606356
  94.9264985  28.7108253  79.4699342  95.6274444  29.3444736  79.6228737
  94.4560100  29.0522984  78.7094982 103.0519380  27.0526202  67.7547249
 103.3279224  26.9382797  68.6641124 102.1823879  26.6543687  67.7159423
 102.9559812  13.0762968  74.7951999 102.0422892  13.3067195  74.9634206
 103.3852914  13.1601412  75.6466031 102.7266271  21.2652860  77.2951893
 102.0737721  21.5128768  76.6404346 103.1046650  20.4516998  76.9614370
  99.6873444  31.3012553  71.3980063  99.8695839  30.4834209  71.8607815
 100.5106430  31.5180246  70.9604953 100.0215610  30.2280738  68.6595112
 100.5503376  29.7173193  68.0465274 100.2843829  29.9123269  69.5240645
  98.7753844  22.0072671  83.7817930  98.0994481  21.9066801  84.4520305
  99.5981477  21.8511885  84.2453927  90.5232703  28.2444608  76.4030445
  91.1086139  27.4988296  76.5358349  90.3257541  28.5548564  77.2867109
  93.3771358  31.2795855  71.4192888  92.7081733  31.7641983  70.9356928
  93.2384228  31.5265076  72.3336266  85.1150357  20.8150208  75.1234888
  85.1534457  20.2813799  75.9172006  84.6090650  20.2885413  74.5045865
  97.5176626  33.3139599  78.0175546  98.0694934  33.4771220  78.7824631
  97.8582820  33.9044036  77.3455571  92.4941120  15.6614748  78.6197431
  92.5582446  16.5229579  78.2074828  92.4308240  15.0488750  77.8869789
  91.9693392  17.7337881  82.2670465  92.5965431  17.3514958  82.8807989
  91.1121311  17.5152083  82.6326157 102.3687501  28.1400856  83.8724200
 102.9127405  28.7530814  83.3779155 101.7874346  28.6980435  84.3891213
  88.7458935  19.5414310  68.1988820  89.0412376  18.6324989  68.1455873
  87.8446971  19.5202050  67.8769822 100.6545014  31.2621574  75.0039228
 100.5296153  30.4611314  74.4950174 101.3124105  31.7567768  74.5153198
  92.2753182  17.6170307  74.1816368  91.5539768  18.2306274  74.0423842
  93.0646438  18.1528072  74.1033014 102.7179922  29.0630594  76.6318778
 101.7710258  28.9435945  76.5597105 103.0662695  28.1753092  76.7145040
  95.0779495  14.9524733  80.4557020  95.6013897  15.1987030  81.2183329
  94.8591829  15.7844768  80.0360157  90.4746777  17.2228408  68.3228145
  90.1459483  16.3425787  68.1403251  90.8286147  17.1676076  69.2104534
  99.7226355  28.8583311  72.8323130  99.5751318  27.9300018  73.0130700
 100.5479849  28.8803401  72.3480206  93.5888600  17.5101378  68.6903623
  93.9284672  18.0387299  67.9682231  94.0360720  17.8481784  69.4662189
 103.3260477  29.6811869  73.9188003 104.2507025  29.4754731  73.7812454
 103.1575781  29.4328270  74.8277345  96.2832041  15.8938428  78.1406691
  95.9428861  15.0946241  78.5427370  95.5771047  16.1940139  77.5683524
  96.9348512  12.9787741  76.5934014  97.7574582  12.5048219  76.4712904
  97.1786576  13.7578224  77.0932700  95.5756747  16.0075999  66.8896915
  96.2965109  16.3857252  66.3860632  94.9522051  16.7264876  66.9931893
  99.7187870  16.7121148  67.8255248  99.9351484  17.5945786  67.5244076
  99.2381937  16.3207362  67.0960890  94.4587091  19.6706861  74.4025992
  94.3131672  19.9847164  75.2950274  93.9812295  20.2891762  73.8496891
  96.3183474  16.6609409  74.4506882  96.3045043  15.7650503  74.1139180
  97.0355902  16.6680073  75.0845168  98.1709605  17.0946750  76.4960009
  97.9127383  18.0163820  76.4944340  97.6394645  16.6977184  77.1860473
 103.1155793  30.1997537  69.2750095 103.2892671  29.6343959  68.5223947
 103.6084685  30.9998432  69.0929585  88.9332753  22.2112206  77.3413653
  88.3886221  22.9872014  77.4733928  89.8112103  22.5583010  77.1832775
  95.7220370  15.5423790  69.7194452  95.8436281  14.6140436  69.9185339
  95.4322412  15.5562476  68.8072767  98.5911560  13.2278700  72.8561172
  98.6133257  13.2918033  71.9013151  99.0079619  12.3883209  73.0501678
 108.9695185  22.9633960  70.8940394 109.4126331  22.2141285  70.4959518
 108.0921695  22.9544096  70.5114126 104.1030966  29.5164301  66.3746993
 104.7981871  30.1370994  66.5934308 104.4454116  28.6659652  66.6499371
  89.7198775  21.3382102  80.2343810  88.9780511  21.4864737  80.8208441
  89.3991519  21.5990368  79.3710560 106.0022389  26.9664007  67.9034324
 106.5273713  27.3051279  67.1783644 105.9144742  26.0311022  67.7197458
  97.6642438  30.8798080  80.0324200  97.9729564  30.6347227  80.9046900
  98.4617920  31.0844719  79.5443070  97.6863050  33.0335990  72.2629577
  97.2468040  32.5412369  72.9562434  98.4371167  32.4908958  72.0221652
  90.1655389  29.2247531  72.2654205  90.9913409  28.9251303  71.8852848
  89.8149441  28.4555153  72.7143994  95.1336922  28.5773999  74.3351878
  94.5116931  27.9144704  74.0354106  95.8041789  28.6035131  73.6525526
  88.3663994  27.1433857  73.2243138  87.5295902  26.7156032  73.0427140
  88.3387639  27.3366301  74.1613930  95.2061449  17.0555787  83.9284385
  95.2549605  17.9317910  83.5462154  95.7483964  16.5133180  83.3556028
 105.6916295  27.5996910  83.2085522 104.9011839  27.5821049  82.6690021
 105.4549650  28.1385204  83.9634558 105.8114170  24.4489377  80.5218250
 105.8612175  24.2839384  81.4633773 105.7028094  23.5816636  80.1316131
  94.6950429  27.1277922  67.8110339  94.8438549  27.8113387  67.1577012
  95.5016872  27.1083012  68.3259795 103.1017933  20.4320305  81.8377557
 104.0027795  20.2926770  81.5461555 103.1765907  20.5974759  82.7775734
  97.4360738  17.8087159  80.6830743  96.5664047  18.1020725  80.4113332
  97.6720218  18.3927604  81.4038007 107.3132367  26.8686318  80.7660272
 107.0217175  27.2316299  81.6023733 106.7004498  26.1553326  80.5873604
 108.5128049  24.4339198  73.2862842 109.3474941  24.8729002  73.4500402
 108.6487178  23.9577851  72.4671088 105.5619555  21.9918933  79.2340330
 106.0373677  22.1846579  78.4259181 104.6385121  22.0478119  78.9883713
  92.4503062  23.1543100  68.8171408  92.2049104  22.2505430  69.0151618
  92.6198976  23.1560250  67.8750886 100.1399772  14.0266776  78.1996164
 100.6581716  14.7627803  77.8742652  99.7854905  14.3330770  79.0342923
  91.7198709  18.8871458  66.3157569  91.0267954  18.9615813  65.6597605
  91.4750461  18.1231801  66.8379086  98.1945834  29.6226053  65.2822086
  97.6219801  30.2416240  64.8292558  98.7678628  30.1725414  65.8162008
 104.2621224  18.8684693  77.4668635 105.2138647  18.9682791  77.4880859
 104.0924675  18.0762961  77.9766720 102.2835604  15.9540276  77.6528036
 101.6885536  16.2345289  76.9574525 101.9985300  16.4434177  78.4244777
 101.4143094  29.9063203  66.4130669 102.3473767  29.8408765  66.6163544
 101.3266307  30.7419470  65.9545201 104.0431111  29.2229073  63.3734616
 103.9644742  28.8888937  64.2670374 104.8640778  29.7150841  63.3726089
 106.7409302  22.0890813  76.5810935 106.7085622  21.1506813  76.7670619
 107.3509926  22.1674849  75.8476760  98.5792633  20.9586866  62.6238139
  99.5251738  20.8293074  62.6926557  98.2006878  20.2201527  63.1007567
 106.8903791  18.8801856  76.6269218 106.3742839  18.0960313  76.4399147
 107.7743739  18.5520573  76.7915738 112.5585852  23.1506819  75.7216972
 113.2889240  22.8892108  76.2824675 111.9492797  22.4135541  75.7619040
 110.6401149  21.2914682  76.3191423 109.9134313  21.1570647  75.7107914
 110.2248436  21.5991511  77.1248141  98.4631325  25.0104612  84.0838796
  99.3834335  25.1883211  84.2778842  98.4280908  24.0660657  83.9318495
  96.7635550  18.8836842  62.5593024  95.8567005  18.5869955  62.6355738
  97.0411531  18.5866660  61.6927310  87.6813490  20.2043205  73.0092071
  87.3616275  19.3508514  72.7166445  87.1346919  20.4191783  73.7650038
  91.4593398  22.9205646  76.7261577  91.6779408  23.8522754  76.7449611
  91.8719172  22.5613621  77.5116381  98.3797616  13.4273732  68.7137265
  97.5698344  13.0820817  69.0892512  99.0682033  13.1181275  69.3024877
 100.3088164  12.5051778  70.3361562 100.8619203  12.9247232  70.9951585
 100.5458250  11.5787527  70.3784518  96.3321263  18.4938852  86.1164326
  96.2317990  19.4433209  86.0476417  96.1142805  18.1657091  85.2440396
  95.5334335  15.7423777  62.7005003  96.3953499  16.0678675  62.9600821
  95.7184679  14.9555273  62.1878069  87.5501750  23.8246117  74.9785192
  86.8565222  23.4100070  74.4655147  88.2974741  23.8666653  74.3818611
 103.6866971  14.6152304  69.8440226 103.1065640  15.2737108  69.4618279
 103.4202904  13.7929648  69.4327644 102.1370538  14.0157361  72.0461547
 102.6370316  14.1273896  71.2375866 102.7806145  13.7118414  72.6862355
  96.1952533  21.9235991  84.9329388  95.7119615  22.7236351  85.1393277
  96.2813472  21.9343936  83.9796832  89.4638493  23.7564371  72.8551207
  89.4409181  23.8552058  71.9033090  89.7739129  24.6029521  73.1768373
  92.1225871  25.8140526  76.9697821  93.0769124  25.7824468  76.9027753
  91.9238394  25.3531149  77.7848047  92.7125253  24.3841642  79.5368619
  93.5318142  24.8785720  79.5603456  92.9862061  23.4673610  79.5086187
 102.4691849  16.7752394  68.8996575 101.5817704  17.0602045  68.6816769
 102.8845838  16.6146157  68.0523852 105.8206385  16.7998915  72.6150914
 106.5966775  17.2895367  72.8875531 105.0954519  17.2256969  73.0722783
 108.2578944  17.5126534  73.6724855 108.8523435  17.2722270  72.9618163
 108.3305528  16.7933665  74.2998391  90.4776100  31.3560145  73.9868019
  90.3430568  30.5960546  73.4206017  90.0608162  32.0801045  73.5196808
 101.6135063  26.5397069  62.9944595 102.3170913  26.7447071  63.6102250
 100.8897711  27.1073831  63.2593678 102.4432873  22.2906930  69.1146865
 102.3868074  22.7475481  68.2754497 102.9961215  21.5297615  68.9369708
 106.2537679  18.0796662  69.9396984 105.9974613  17.6793297  70.7705192
 105.6290547  18.7940456  69.8147123 110.5650017  20.8192735  72.4468276
 110.0049575  20.8885924  73.2199838 109.9593520  20.6433720  71.7267772
  93.6345225  32.2529462  74.1986462  93.5177610  33.1974895  74.0965152
  92.8137672  31.9503024  74.5872261 103.5221760  26.9779598  65.0443055
 104.3567364  26.5460796  64.8620529 103.3606103  26.8061612  65.9719949
 103.1767652  23.4811711  66.4099394 103.1216456  23.3155983  65.4687838
 102.5513707  24.1887744  66.5661584  87.9660167  18.7179776  80.2360816
  88.6119031  18.2078730  80.7248041  87.7577318  19.4548457  80.8104241
 100.4913559  25.7860623  85.7352957 101.3604719  25.9601275  85.3739592
 100.0120311  26.6055040  85.6128686  96.4863778  12.9819820  65.9884712
  96.4742448  13.9261660  66.1452983  97.3787200  12.7989966  65.6944174
  94.6599740  32.9057724  77.4142390  95.5626986  32.9381334  77.7308885
  94.4337110  31.9758175  77.4288726  96.4153342  31.6588711  74.0752469
  95.4648973  31.6590572  73.9616841  96.7185828  30.9121445  73.5588504
  92.3057658  15.8647393  84.3335830  93.1689120  15.5084197  84.5439155
  91.7323069  15.5261287  85.0211235 112.1506035  37.4949249  75.1398231
 112.7884445  37.3755996  74.4361571 112.0326878  38.4430093  75.1986184
 108.9595741  37.4476677  75.0759756 108.6214253  37.3317742  74.1880291
 109.8285510  37.0467842  75.0560762 104.8182557  39.3012153  71.0656647
 104.2547422  39.2102090  70.2972935 104.7034952  38.4812058  71.5459140
 109.4415524  38.6011529  81.0345962 109.4304165  38.2064327  80.1626465
 109.6036164  37.8677601  81.6279733 102.3646989  40.7963345  73.9040868
 103.1568281  40.4554170  73.4887167 102.6043639  40.9058320  74.8243021
 110.3982116  42.9683121  66.3771112 109.7470096  43.5537202  65.9905126
 111.1926479  43.4989316  66.4366149 104.3237743  40.0572258  66.7758246
 105.0968619  39.5101245  66.6371122 104.6763142  40.9216508  66.9872708
 106.1622786  41.3848641  79.9825146 105.8712652  42.2894271  79.8671812
 106.7979770  41.4265168  80.6969215 107.0878992  38.7625489  76.5726505
 107.6842565  38.5381512  75.8583468 107.1453964  38.0210235  77.1751953
 106.6604021  36.2164924  64.4076696 106.9129541  35.6946446  63.6460159
 105.7228580  36.0531070  64.5103380 111.7047304  35.2200703  72.2151439
 112.4910393  34.8020126  71.8641856 111.9686008  36.1246795  72.3833088
 111.8757381  40.6573553  66.9140096 111.2403214  40.7308180  67.6261001
 111.5454787  41.2467152  66.2359176 117.1055731  35.1575936  73.1184418
 117.8380903  34.5875153  73.3522247 116.3495086  34.7697536  73.5590924
 106.3800310  38.1193030  66.6101071 106.2636568  37.4437934  67.2782155
 106.4902569  37.6325404  65.7933224 108.7231850  37.5803178  70.3147760
 108.3590058  37.0533798  71.0260682 109.5798966  37.1901647  70.1414246
 114.6281151  28.8697510  77.5779027 114.2964476  29.7392921  77.3540242
 114.0326764  28.5533794  78.2573057 108.3637337  32.6093077  65.3109109
 108.5311740  33.4773314  65.6779580 108.1734507  32.7720359  64.3870398
 111.1212671  41.0710056  76.9774939 110.8213394  41.9735095  76.8690747
 110.7763730  40.8042239  77.8296092 104.5725152  37.5223853  73.0111644
 103.6475649  37.3900067  73.2189335 104.8209565  38.3018072  73.5081586
 114.5209814  33.5892596  74.6572377 113.6126692  33.5208005  74.3631138
 114.4697410  34.0664541  75.4854202 108.3426558  35.0650735  66.2955776
 108.2226184  35.5107785  67.1341256 107.6479147  35.4136052  65.7369314
 101.9333963  37.1657126  73.8455433 102.0626344  37.4191605  74.7594845
 101.2531414  37.7584834  73.5260088 106.1033450  47.8354376  69.9445907
 106.0257480  48.7862202  70.0234388 105.4995094  47.4900249  70.6020833
 108.5950680  35.0082242  82.6007274 107.8184014  35.5676162  82.5910139
 109.2341243  35.4939025  83.1222144 116.3871461  31.7909035  76.4350251
 115.7445841  32.0841568  75.7890045 115.8826389  31.6761955  77.2403447
 114.0411624  35.5372208  67.1236110 114.9529481  35.7699595  66.9483807
 113.5321272  36.1209252  66.5611188 106.8497052  37.8167695  82.1625241
 107.5911737  38.3552739  81.8860065 106.1434038  38.4433984  82.3196793
 112.3252392  39.9596836  80.7597402 112.7335748  39.5179246  80.0152035
 111.6029654  39.3849463  81.0131595 108.6783462  34.8969442  78.1330959
 109.5244657  35.3208856  78.2765608 108.6182100  34.2403067  78.8269522
 112.6481207  40.5198026  74.5149691 112.0190069  40.6843740  73.8125759
 112.2606869  40.9339636  75.2860655 116.5270439  41.4552464  71.8694055
 115.8421477  41.8351366  71.3191088 116.6114288  42.0647791  72.6026003
 111.8282908  32.5573811  79.7912133 111.5843839  33.3115871  79.2546409
 112.1042838  32.9359158  80.6259380 113.7821370  39.1012423  78.4689399
 113.9938266  39.7444183  77.7923780 113.7351119  38.2674740  78.0011329
 111.3847599  31.7130244  75.3725971 110.5232078  32.0111497  75.6642708
 111.4110034  31.9300643  74.4407003 108.2009169  40.2572434  71.7799776
 108.6647514  40.5360137  70.9904399 107.9365967  39.3555879  71.5972867
 105.0933250  39.8043916  74.7179540 105.6634607  40.2331184  74.0797024
 105.6841362  39.5226501  75.4163725 107.1378055  36.3795587  68.5889342
 107.8402098  36.8316630  69.0563268 106.8058683  35.7379406  69.2169235
 105.5858416  34.9707343  82.9640551 104.9557077  35.6523624  83.1975948
 105.4794504  34.8590425  82.0193689 100.8803389  34.6379139  73.8906475
 100.0902443  34.8936668  73.4146586 101.3714636  35.4527477  73.9958516
 114.8967198  41.9784379  76.6411756 115.7184642  41.5764566  76.3594438
 114.8929601  41.8752613  77.5927872 102.8318134  35.0023719  70.8489952
 102.0349297  35.1142413  71.3673447 102.6043726  35.3410371  69.9830842
 108.6623802  41.5268422  78.7972466 108.7268234  41.9888829  79.6330638
 107.9534726  40.8965787  78.9254776  99.1641092  34.8909630  76.3221466
  99.4149130  35.7756640  76.5879042  99.7000640  34.7114231  75.5496558
 108.3771819  43.1936529  68.6651447 108.2417494  44.0388065  69.0936295
 108.9181632  43.3955807  67.9017381 104.8639159  29.2728109  85.3265802
 104.4706105  28.7194308  86.0013446 105.6805299  29.5838688  85.7172319
 101.8301217  40.7111967  69.2379372 102.3425737  41.5055218  69.3884936
 102.4823930  40.0138258  69.1712973 103.6396101  43.8277724  71.3202125
 103.8162730  44.7495688  71.1323109 104.4352935  43.5136143  71.7496505
 107.7807120  30.6885988  82.9186059 108.5216833  31.2893141  82.8390521
 108.0125043  29.9463626  82.3604101 102.9248458  35.8742356  81.1964288
 102.8101973  34.9727613  81.4971387 102.0692976  36.1206052  80.8449105
 110.0040296  43.8160096  82.7951789 109.5604150  43.0296474  82.4772693
 110.6657509  44.0039246  82.1295680 104.7627417  45.3455898  77.3212467
 105.3134842  45.2172961  76.5489461 103.9238893  45.6450787  76.9707360
 112.1021534  44.0962896  80.8233190 112.0840009  44.9171777  80.3313459
 113.0241454  43.9716971  81.0483331 108.5594588  41.6107025  81.6656698
 109.0922925  40.8495314  81.4356006 108.0308669  41.3180677  82.4080853
 111.7264283  26.7167091  77.1950340 111.3828552  27.6068733  77.1189451
 112.0943246  26.5268749  76.3319925  99.7950134  39.0400622  70.0138942
 100.6325356  39.4497630  69.7972650  99.9728401  38.1000064  69.9839136
 111.6914566  36.7075702  65.7022775 111.1761189  37.4780307  65.9411163
 111.4191874  36.0340839  66.3255837 109.2761677  31.5525403  70.7608014
 108.4203273  31.1632254  70.5813652 109.6888628  31.6317364  69.9007799
 110.8060823  29.0871746  75.1599573 110.3025619  29.0501882  74.3467379
 111.0991430  29.9964489  75.2196230 107.0503709  29.1710476  74.1665755
 107.9156706  28.9753285  73.8071645 107.1181218  28.9420828  75.0935112
 116.6648840  39.4608057  67.6375949 115.8878283  39.1219217  67.1931111
 117.3440321  39.4660680  66.9630914 111.4800869  34.5802794  67.5282556
 111.1751004  34.8948944  68.3792700 112.4331311  34.6584214  67.5709889
 109.9247301  40.7393018  69.1775510 109.3968662  40.0045777  68.8648748
 109.4234803  41.5167694  68.9315479 114.9040147  38.9342038  74.2942557
 114.2463821  39.6241300  74.3822685 115.7080546  39.3238470  74.6376543
 104.6566028  31.4012684  71.5382122 105.2309780  31.1787866  70.8055315
 105.2437011  31.4701379  72.2910723 113.7145605  37.2886411  72.3446499
 114.2277487  37.9216403  72.8468208 114.3646829  36.6887606  71.9789859
 104.9835615  33.4317145  65.5578007 104.1472928  33.7691832  65.8787282
 104.8440385  33.2966125  64.6205144 106.9588696  28.2753933  70.2657191
 106.3053108  27.9602950  69.6413806 106.9169170  27.6529673  70.9917014
 108.0699901  38.5573228  62.1810483 107.1626963  38.3262482  62.3801632
 108.5670933  37.7610847  62.3684465 110.9767980  47.2670735  65.1007170
 110.3029678  47.5702432  65.7092127 111.3633802  48.0699816  64.7512627
 110.1926436  34.7635867  74.5904839 109.2748998  34.9850814  74.4326527
 110.6086580  34.8382177  73.7316546 110.9761484  36.1627282  69.7207519
 111.7233303  36.6748679  69.4114641 111.2453074  35.8411335  70.5811913
 109.2488134  38.6585823  66.7034474 108.3399354  38.3744856  66.8006943
 109.2783218  39.0784902  65.8437780 114.4807402  42.2692412  70.4725641
 114.0269729  41.4283322  70.5290832 113.8501368  42.9053811  70.8100421
 113.4240321  33.1984398  71.7026309 112.6863078  32.6861785  72.0336551
 113.6767095  32.7584780  70.8909585 112.9240341  44.1068909  71.4075459
 113.2163315  44.6673966  70.6887825 113.4338961  44.3997470  72.1628618
 113.5251949  25.9760650  72.2968078 113.8310825  25.1158014  72.0093993
 114.2504553  26.5678271  72.0967072  99.8176305  36.3791337  70.6849676
  99.6200704  35.7860698  69.9600742  99.2622969  36.0743547  71.4025615
 107.7973028  36.2714444  72.8044269 107.8521638  35.3188280  72.7286746
 106.9864230  36.4273883  73.2885567 108.9464222  40.1994567  64.0422552
 108.5083652  39.4830426  63.5828189 109.6874663  40.4270681  63.4807644
 105.7365388  34.8891503  70.5634648 104.9233254  35.1885674  70.9699840
 106.2324382  34.4947192  71.2809130 107.8873966  44.8849260  72.4968912
 107.8450145  45.1110107  71.5677445 108.8036665  44.6512635  72.6454714
 111.3339600  35.3533328  79.3949542 111.6888988  35.5804801  80.2544007
 111.9811731  35.6851705  78.7726797 117.0637337  38.4751764  70.0998871
 116.9255235  38.6653360  69.1720060 116.7073556  39.2371146  70.5566922
 105.2279463  32.4609859  76.1795883 105.8678842  32.3198618  75.4818846
 104.3956994  32.1744372  75.8034485 117.0906716  40.5428291  75.1110142
 117.5243223  40.4503580  75.9593196 117.8038297  40.5185791  74.4730158
 106.0039767  41.7612289  72.2930875 106.7980365  41.2662609  72.0913450
 105.2931459  41.2330152  71.9298581 110.8234611  44.1430385  76.6443243
 110.8771634  44.7121321  77.4120959 109.9549393  44.3132270  76.2797280
 102.3122530  35.9055371  68.3690628 101.3820118  35.8439826  68.5860590
 102.4080002  35.3831324  67.5727269 102.2308079  32.4310184  70.9568870
 102.4914897  33.3455517  70.8478030 103.0525252  31.9634626  71.1065482
 103.7033005  33.8447941  78.1267694 104.3756058  33.6365303  77.4780343
 102.8762791  33.6470027  77.6872926 117.9522266  40.5851991  77.6443028
 118.1458156  41.4897802  77.8902303 117.8522884  40.1259410  78.4781613
 109.6058577  30.4709882  80.1433355 108.9586492  31.1699832  80.0497831
 110.3759592  30.9046026  80.5109603 113.0137375  40.7358734  83.2183908
 112.8622881  40.5069286  82.3013992 113.0042054  41.6929335  83.2315253
 109.7822711  38.3090647  78.2030175 110.7114771  38.4601806  78.0299142
 109.3613741  38.3974668  77.3478821 108.5811043  42.3341311  75.9728712
 108.4422129  41.9660096  76.8454650 107.7925639  42.8488951  75.8012670
 109.1759195  47.4350408  67.3154249 109.3510951  46.9638451  68.1299872
 108.4891983  48.0616174  67.5435510 110.1316258  41.7122914  73.3617550
 109.7966091  41.6723684  74.2575200 109.6320204  41.0467630  72.8887960
 104.1060502  37.1190544  78.8870131 103.9680300  36.3870783  79.4881670
 105.0165425  37.0299444  78.6054319 113.0675450  39.0578948  63.6354610
 112.4504620  38.3325776  63.5387662 112.5991938  39.8188309  63.2921684
 106.7342803  36.8310503  78.3753811 107.4442421  36.1903695  78.3340429
 106.6912111  37.0823398  79.2979992 114.7229581  43.7677857  81.2960390
 114.6642127  43.0837077  80.6290973 115.1249100  44.5096847  80.8441016
 105.4471737  33.8175721  80.1949450 104.9109094  33.3666460  80.8471047
 104.8588445  33.9521630  79.4519915 103.7420280  50.5839770  74.0894109
 103.9816878  51.2158295  74.7673128 102.8989477  50.2327810  74.3759468
 104.8573996  33.2764373  62.7575914 103.9803462  33.1553173  62.3938161
 105.3331749  32.4850451  62.5054803 114.7246989  41.7317441  79.5274370
 113.8373767  41.3943362  79.6500769 115.2945540  41.0000472  79.7643135
  96.3776136  38.0641532  72.8517421  97.0647176  37.7503262  72.2638436
  96.2224264  38.9682897  72.5784673 101.1810858  32.9531729  77.2802445
 101.0969047  32.3457398  76.5452855 100.3593564  33.4440747  77.2811941
 108.2548142  46.3918893  76.4935613 108.1818313  47.1973864  77.0054918
 107.8125535  46.5910859  75.6683634 108.0437922  45.6290663  70.0038435
 107.2605444  46.1712343  70.0976659 108.7430667  46.1464643  70.4032676
 111.3534572  31.4385292  72.6472640 111.8503271  30.6855255  72.3273710
 110.5821553  31.4749609  72.0815849 119.2064329  37.1425658  74.2890931
 119.1954205  38.0250373  73.9184865 118.3381709  36.7897209  74.0945468
 110.7146826  46.2905727  78.6493772 111.4274798  46.9253192  78.5769673
 110.2236854  46.3869593  77.8333773 112.4364352  40.1956980  70.2211063
 111.5020631  40.3158442  70.0515768 112.6141021  39.2929446  69.9571073
 107.9369540  33.5802675  72.3744325 107.5667328  33.0273716  73.0625230
 108.4328633  32.9760809  71.8219325 115.8236904  36.0374299  70.7561097
 116.2897356  36.8702290  70.6821400 116.2744404  35.5719280  71.4606356
 105.7658739  44.0400170  79.4699342 106.4668199  44.6736653  79.6228737
 105.2953854  44.3814902  78.7094982 113.8913135  42.3818120  67.7547249
 114.1672979  42.2674715  68.6641124 113.0217634  41.9835605  67.7159423
 113.7953567  28.4054886  74.7951999 112.8816646  28.6359113  74.9634206
 114.2246668  28.4893330  75.6466031 113.5660025  36.5944778  77.2951893
 112.9131475  36.8420685  76.6404346 113.9440405  35.7808916  76.9614370
 110.5267199  46.6304471  71.3980063 110.7089593  45.8126127  71.8607815
 111.3500185  46.8472163  70.9604953 110.8609364  45.5572656  68.6595112
 111.3897131  45.0465111  68.0465274 111.1237584  45.2415186  69.5240645
 109.6147598  37.3364589  83.7817930 108.9388235  37.2358718  84.4520305
 110.4375232  37.1803803  84.2453927 101.3626457  43.5736525  76.4030445
 101.9479894  42.8280213  76.5358349 101.1651296  43.8840482  77.2867109
 104.2165112  46.6087773  71.4192888 103.5475488  47.0933900  70.9356928
 104.0777982  46.8556993  72.3336266  95.9544112  36.1442126  75.1234888
  95.9928211  35.6105716  75.9172006  95.4484405  35.6177331  74.5045865
 108.3570381  48.6431516  78.0175546 108.9088689  48.8063138  78.7824631
 108.6976574  49.2335954  77.3455571 103.3334874  30.9906666  78.6197431
 103.3976201  31.8521497  78.2074828 103.2701994  30.3780668  77.8869789
 102.8087147  33.0629799  82.2670465 103.4359185  32.6806876  82.8807989
 101.9515066  32.8444001  82.6326157 113.2081255  43.4692774  83.8724200
 113.7521159  44.0822732  83.3779155 112.6268100  44.0272352  84.3891213
  99.5852689  34.8706228  68.1988820  99.8806131  33.9616906  68.1455873
  98.6840725  34.8493967  67.8769822 111.4938768  46.5913492  75.0039228
 111.3689908  45.7903232  74.4950174 112.1517859  47.0859685  74.5153198
 103.1146936  32.9462224  74.1816368 102.3933522  33.5598192  74.0423842
 103.9040192  33.4819989  74.1033014 113.5573677  44.3922512  76.6318778
 112.6104012  44.2727863  76.5597105 113.9056450  43.5045010  76.7145040
 105.9173250  30.2816651  80.4557020 106.4407652  30.5278947  81.2183329
 105.6985583  31.1136686  80.0360157 101.3140531  32.5520325  68.3228145
 100.9853237  31.6717704  68.1403251 101.6679902  32.4967994  69.2104534
 110.5620110  44.1875228  72.8323130 110.4145072  43.2591936  73.0130700
 111.3873603  44.2095319  72.3480206 104.4282354  32.8393295  68.6903623
 104.7678427  33.3679217  67.9682231 104.8754475  33.1773701  69.4662189
 114.1654232  45.0103787  73.9188003 115.0900779  44.8046648  73.7812454
 113.9969535  44.7620188  74.8277345 107.1225795  31.2230346  78.1406691
 106.7822615  30.4238159  78.5427370 106.4164801  31.5232057  77.5683524
 107.7742267  28.3079658  76.5934014 108.5968336  27.8340137  76.4712904
 108.0180330  29.0870142  77.0932700 106.4150501  31.3367917  66.8896915
 107.1358864  31.7149170  66.3860632 105.7915805  32.0556794  66.9931893
 110.5581624  32.0413066  67.8255248 110.7745239  32.9237704  67.5244076
 110.0775691  31.6499279  67.0960890 105.2980846  34.9998779  74.4025992
 105.1525426  35.3139082  75.2950274 104.8206049  35.6183679  73.8496891
 107.1577228  31.9901327  74.4506882 107.1438797  31.0942420  74.1139180
 107.8749657  31.9971991  75.0845168 109.0103359  32.4238667  76.4960009
 108.7521137  33.3455738  76.4944340 108.4788400  32.0269102  77.1860473
 113.9549548  45.5289454  69.2750095 114.1286425  44.9635877  68.5223947
 114.4478439  46.3290349  69.0929585  99.7726508  37.5404123  77.3413653
  99.2279976  38.3163931  77.4733928 100.6505858  37.8874928  77.1832775
 106.5614124  30.8715707  69.7194452 106.6830036  29.9432353  69.9185339
 106.2716167  30.8854393  68.8072767 109.4305315  28.5570618  72.8561172
 109.4527012  28.6209951  71.9013151 109.8473374  27.7175126  73.0501678
 119.8088939  38.2925877  70.8940394 120.2520085  37.5433203  70.4959518
 118.9315449  38.2836014  70.5114126 114.9424720  44.8456219  66.3746993
 115.6375625  45.4662911  66.5934308 115.2847871  43.9951570  66.6499371
 100.5592530  36.6674020  80.2343810  99.8174266  36.8156655  80.8208441
 100.2385274  36.9282285  79.3710560 116.8416144  42.2955924  67.9034324
 117.3667468  42.6343197  67.1783644 116.7538496  41.3602940  67.7197458
 108.5036192  46.2089998  80.0324200 108.8123319  45.9639145  80.9046900
 109.3011674  46.4136636  79.5443070 108.5256804  48.3627908  72.2629577
 108.0861795  47.8704286  72.9562434 109.2764921  47.8200875  72.0221652
 101.0049143  44.5539448  72.2654205 101.8307163  44.2543220  71.8852848
 100.6543195  43.7847071  72.7143994 105.9730676  43.9065917  74.3351878
 105.3510686  43.2436622  74.0354106 106.6435543  43.9327049  73.6525526
  99.2057748  42.4725775  73.2243138  98.3689657  42.0447949  73.0427140
  99.1781394  42.6658218  74.1613930 106.0455204  32.3847705  83.9284385
 106.0943359  33.2609827  83.5462154 106.5877718  31.8425098  83.3556028
 116.5310050  42.9288828  83.2085522 115.7405593  42.9112967  82.6690021
 116.2943404  43.4677122  83.9634558 116.6507925  39.7781294  80.5218250
 116.7005930  39.6131302  81.4633773 116.5421848  38.9108553  80.1316131
 105.5344183  42.4569840  67.8110339 105.6832304  43.1405304  67.1577012
 106.3410627  42.4374930  68.3259795 113.9411687  35.7612222  81.8377557
 114.8421550  35.6218687  81.5461555 114.0159662  35.9266677  82.7775734
 108.2754492  33.1379077  80.6830743 107.4057802  33.4312643  80.4113332
 108.5113973  33.7219522  81.4038007 118.1526121  42.1978236  80.7660272
 117.8610930  42.5608216  81.6023733 117.5398253  41.4845244  80.5873604
 119.3521804  39.7631116  73.2862842 120.1868695  40.2020920  73.4500402
 119.4880933  39.2869769  72.4671088 116.4013310  37.3210850  79.2340330
 116.8767431  37.5138497  78.4259181 115.4778875  37.3770036  78.9883713
 103.2896816  38.4835018  68.8171408 103.0442858  37.5797348  69.0151618
 103.4592731  38.4852168  67.8750886 110.9793526  29.3558694  78.1996164
 111.4975470  30.0919721  77.8742652 110.6248659  29.6622687  79.0342923
 102.5592464  34.2163375  66.3157569 101.8661709  34.2907730  65.6597605
 102.3144216  33.4523719  66.8379086 111.2306120  25.7758977  73.7197060
 111.5107874  25.1082166  74.3457487 112.0156727  25.9688072  73.2071724
 109.0339589  44.9517970  65.2822086 108.4613556  45.5708158  64.8292558
 109.6072383  45.5017332  65.8162008 115.1014979  34.1976611  77.4668635
 116.0532402  34.2974708  77.4880859 114.9318429  33.4054879  77.9766720
 113.1229358  31.2832194  77.6528036 112.5279290  31.5637206  76.9574525
 112.8379055  31.7726095  78.4244777 112.2536849  45.2355121  66.4130669
 113.1867522  45.1700682  66.6163544 112.1660061  46.0711387  65.9545201
 114.8824865  44.5520991  63.3734616 114.8038497  44.2180855  64.2670374
 115.7034532  45.0442759  63.3726089 117.5803057  37.4182730  76.5810935
 117.5479377  36.4798731  76.7670619 118.1903680  37.4966767  75.8476760
 109.4186387  36.2878783  62.6238139 110.3645492  36.1584991  62.6926557
 109.0400632  35.5493445  63.1007567 117.7297545  34.2093774  76.6269218
 117.2136594  33.4252230  76.4399147 118.6137494  33.8812490  76.7915738
 115.3908272  27.9534789  72.5865031 115.1933093  27.6449877  73.4708363
 116.0007978  28.6796428  72.7162961 109.3025080  40.3396529  84.0838796
 110.2228089  40.5175128  84.2778842 109.2674663  39.3952575  83.9318495
 107.6029305  34.2128760  62.5593024 106.6960760  33.9161872  62.6355738
 107.8805286  33.9158578  61.6927310  98.5207245  35.5335123  73.0092071
  98.2010029  34.6800431  72.7166445  97.9740673  35.7483701  73.7650038
 102.2987152  38.2497564  76.7261577 102.5173162  39.1814672  76.7449611
 102.7112926  37.8905538  77.5116381 109.2191370  28.7565649  68.7137265
 108.4092099  28.4112734  69.0892512 109.9075787  28.4473193  69.3024877
 111.1481919  27.8343696  70.3361562 111.7012957  28.2539150  70.9951585
 111.3852005  26.9079444  70.3784518 107.1715018  33.8230770  86.1164326
 107.0711745  34.7725127  86.0476417 106.9536560  33.4949009  85.2440396
 106.3728089  31.0715695  62.7005003 107.2347253  31.3970593  62.9600821
 106.5578433  30.2847191  62.1878069  98.3895505  39.1538034  74.9785192
  97.6958976  38.7391987  74.4655147  99.1368496  39.1958571  74.3818611
 114.5260726  29.9444221  69.8440226 113.9459395  30.6029025  69.4618279
 114.2596658  29.1221566  69.4327644 112.9764292  29.3449279  72.0461547
 113.4764070  29.4565814  71.2375866 113.6199900  29.0410332  72.6862355
 107.0346288  37.2527909  84.9329388 106.5513370  38.0528269  85.1393277
 107.1207227  37.2635853  83.9796832 100.3032247  39.0856288  72.8551207
 100.2802936  39.1843976  71.9033090 100.6132884  39.9321439  73.1768373
 102.9619625  41.1432443  76.9697821 103.9162879  41.1116386  76.9027753
 102.7632149  40.6823067  77.7848047 103.5519007  39.7133559  79.5368619
 104.3711896  40.2077638  79.5603456 103.8255815  38.7965527  79.5086187
 113.3085604  32.1044312  68.8996575 112.4211459  32.3893962  68.6816769
 113.7239593  31.9438075  68.0523852 116.6600140  32.1290833  72.6150914
 117.4360530  32.6187285  72.8875531 115.9348274  32.5548887  73.0722783
 119.0972698  32.8418452  73.6724855 119.6917189  32.6014188  72.9618163
 119.1699282  32.1225582  74.2998391 101.3169854  46.6852063  73.9868019
 101.1824322  45.9252464  73.4206017 100.9001916  47.4092963  73.5196808
 112.4528817  41.8688986  62.9944595 113.1564667  42.0738989  63.6102250
 111.7291466  42.4365748  63.2593678 113.2826627  37.6198848  69.1146865
 113.2261829  38.0767399  68.2754497 113.8354970  36.8589532  68.9369708
 117.0931433  33.4088579  69.9396984 116.8368368  33.0085215  70.7705192
 116.4684301  34.1232373  69.8147123 104.4738980  47.5821380  74.1986462
 104.3571364  48.5266812  74.0965152 103.6531426  47.2794941  74.5872261
 114.3615515  42.3071516  65.0443055 115.1961118  41.8752714  64.8620529
 114.1999857  42.1353529  65.9719949 114.0161407  38.8103629  66.4099394
 113.9610210  38.6447900  65.4687838 113.3907462  39.5179662  66.5661584
  98.8053922  34.0471693  80.2360816  99.4512785  33.5370647  80.7248041
  98.5971073  34.7840375  80.8104241 111.3307314  41.1152541  85.7352957
 112.1998474  41.2893193  85.3739592 110.8514065  41.9346958  85.6128686
 107.3257532  28.3111738  65.9884712 107.3136202  29.2553578  66.1452983
 108.2180954  28.1281883  65.6944174 105.4993494  48.2349642  77.4142390
 106.4020741  48.2673252  77.7308885 105.2730864  47.3050093  77.4288726
 107.2547096  46.9880628  74.0752469 106.3042727  46.9882490  73.9616841
 107.5579582  46.2413363  73.5588504 111.1409652  24.9054514  70.2430649
 110.3742047  24.3513001  70.3887332 111.5520357  24.9776383  71.1044801
 103.1451413  31.1939310  84.3335830 104.0082874  30.8376115  84.5439155
 102.5716823  30.8553205  85.0211235 115.6576312  54.6304071  71.0656647
 115.0941177  54.5394008  70.2972935 115.5428707  53.8103976  71.5459140
 120.2809279  53.9303446  81.0345962 120.2697920  53.5356245  80.1626465
 120.4429918  53.1969519  81.6279733 113.2040744  56.1255263  73.9040868
 113.9962035  55.7846087  73.4887167 113.4437394  56.2350238  74.8243021
 115.1631497  55.3864176  66.7758246 115.9362373  54.8393163  66.6371122
 115.5156896  56.2508425  66.9872708 117.0016540  56.7140558  79.9825146
 116.7106406  57.6186189  79.8671812 117.6373524  56.7557086  80.6969215
 117.9272747  54.0917407  76.5726505 118.5236319  53.8673429  75.8583468
 117.9847718  53.3502152  77.1751953 117.4997775  51.5456842  64.4076696
 117.7523296  51.0238363  63.6460159 116.5622334  51.3822988  64.5103380
 117.2194064  53.4484948  66.6101071 117.1030322  52.7729851  67.2782155
 117.3296324  52.9617322  65.7933224 119.5625605  52.9095095  70.3147760
 119.1983812  52.3825716  71.0260682 120.4192721  52.5193564  70.1414246
 119.2031092  47.9384995  65.3109109 119.3705494  48.8065231  65.6779580
 119.0128261  48.1012277  64.3870398 115.4118907  52.8515771  73.0111644
 114.4869403  52.7191985  73.2189335 115.6603320  53.6309990  73.5081586
 119.1820313  50.3942652  66.2955776 119.0619938  50.8399703  67.1341256
 118.4872901  50.7427970  65.7369314 112.7727718  52.4949044  73.8455433
 112.9020099  52.7483523  74.7594845 112.0925169  53.0876752  73.5260088
 116.9427205  63.1646294  69.9445907 116.8651235  64.1154119  70.0234388
 116.3388849  62.8192167  70.6020833 119.4344435  50.3374160  82.6007274
 118.6577769  50.8968080  82.5910139 120.0734998  50.8230943  83.1222144
 117.6890807  53.1459613  82.1625241 118.4305491  53.6844657  81.8860065
 116.9827792  53.7725902  82.3196793 119.5177217  50.2261360  78.1330959
 120.3638412  50.6500774  78.2765608 119.4575854  49.5694984  78.8269522
 119.0402923  55.5864352  71.7799776 119.5041269  55.8652055  70.9904399
 118.7759721  54.6847797  71.5972867 115.9327004  55.1335834  74.7179540
 116.5028361  55.5623102  74.0797024 116.5235116  54.8518418  75.4163725
 117.9771809  51.7087504  68.5889342 118.6795853  52.1608548  69.0563268
 117.6452438  51.0671323  69.2169235 116.4252171  50.2999261  82.9640551
 115.7950831  50.9815542  83.1975948 116.3188259  50.1882343  82.0193689
 111.7197143  49.9671057  73.8906475 110.9296197  50.2228586  73.4146586
 112.2108391  50.7819395  73.9958516 113.6711889  50.3315636  70.8489952
 112.8743052  50.4434331  71.3673447 113.4437481  50.6702289  69.9830842
 119.5017556  56.8560340  78.7972466 119.5661989  57.3180747  79.6330638
 118.7928480  56.2257705  78.9254776 110.0034846  50.2201548  76.3221466
 110.2542885  51.1048557  76.5879042 110.5394395  50.0406149  75.5496558
 119.2165574  58.5228447  68.6651447 119.0811249  59.3679983  69.0936295
 119.7575386  58.7247725  67.9017381 115.7032913  44.6020027  85.3265802
 115.3099859  44.0486225  86.0013446 116.5199054  44.9130605  85.7172319
 112.6694971  56.0403885  69.2379372 113.1819492  56.8347135  69.3884936
 113.3217684  55.3430176  69.1712973 114.4789856  59.1569641  71.3202125
 114.6556484  60.0787606  71.1323109 115.2746689  58.8428061  71.7496505
 118.6200874  46.0177906  82.9186059 119.3610588  46.6185059  82.8390521
 118.8518797  45.2755544  82.3604101 113.7642212  51.2034273  81.1964288
 113.6495728  50.3019531  81.4971387 112.9086730  51.4497970  80.8449105
 115.6021171  60.6747815  77.3212467 116.1528597  60.5464879  76.5489461
 114.7632647  60.9742704  76.9707360 119.3988342  56.9398943  81.6656698
 119.9316679  56.1787231  81.4356006 118.8702424  56.6472595  82.4080853
 110.6343888  54.3692539  70.0138942 111.4719110  54.7789548  69.7972650
 110.8122156  53.4291982  69.9839136 117.8897464  44.5002394  74.1665755
 118.7550460  44.3045203  73.8071645 117.9574973  44.2712746  75.0935112
 115.4959783  46.7304602  71.5382122 116.0703535  46.5079783  70.8055315
 116.0830765  46.7993296  72.2910723 115.8229370  48.7609063  65.5578007
 114.9866682  49.0983749  65.8787282 115.6834140  48.6258043  64.6205144
 117.7982450  43.6045851  70.2657191 117.1446863  43.2894868  69.6413806
 117.7562925  42.9821591  70.9917014 118.9093655  53.8865146  62.1810483
 118.0020717  53.6554399  62.3801632 119.4064687  53.0902765  62.3684465
 120.0881889  53.9877741  66.7034474 119.1793108  53.7036773  66.8006943
 120.1176973  54.4076819  65.8437780 110.6570059  51.7083255  70.6849676
 110.4594459  51.1152615  69.9600742 110.1016723  51.4035465  71.4025615
 118.6366783  51.6006361  72.8044269 118.6915393  50.6480198  72.7286746
 117.8257985  51.7565800  73.2885567 116.5759143  50.2183421  70.5634648
 115.7627008  50.5177592  70.9699840 117.0718137  49.8239110  71.2809130
 118.7267721  60.2141178  72.4968912 118.6843899  60.4402024  71.5677445
 119.6430419  59.9804552  72.6454714 116.0673217  47.7901776  76.1795883
 116.7072597  47.6490536  75.4818846 115.2350748  47.5036290  75.8034485
 116.8433521  57.0904207  72.2930875 117.6374120  56.5954527  72.0913450
 116.1325214  56.5622070  71.9298581 113.1516285  51.2347289  68.3690628
 112.2213873  51.1731744  68.5860590 113.2473757  50.7123241  67.5727269
 113.0701834  47.7602101  70.9568870 113.3308651  48.6747435  70.8478030
 113.8919006  47.2926544  71.1065482 114.5426759  49.1739859  78.1267694
 115.2149813  48.9657221  77.4780343 113.7156546  48.9761945  77.6872926
 119.4204797  57.6633229  75.9728712 119.2815883  57.2952013  76.8454650
 118.6319394  58.1780868  75.8012670 120.0152949  62.7642325  67.3154249
 120.1904705  62.2930369  68.1299872 119.3285737  63.3908092  67.5435510
 114.9454256  52.4482462  78.8870131 114.8074054  51.7162700  79.4881670
 115.8559180  52.3591362  78.6054319 117.5736557  52.1602421  78.3753811
 118.2836176  51.5195613  78.3340429 117.5305865  52.4115316  79.2979992
 116.2865491  49.1467639  80.1949450 115.7502848  48.6958377  80.8471047
 115.6982200  49.2813548  79.4519915 114.5814035  65.9131688  74.0894109
 114.8210633  66.5450212  74.7673128 113.7383231  65.5619728  74.3759468
 115.6967750  48.6056290  62.7575914 114.8197216  48.4845091  62.3938161
 116.1725503  47.8142369  62.5054803 107.2169890  53.3933450  72.8517421
 107.9040930  53.0795180  72.2638436 107.0618019  54.2974815  72.5784673
 112.0204612  48.2823647  77.2802445 111.9362801  47.6749316  76.5452855
 111.1987319  48.7732665  77.2811941 119.0941896  61.7210811  76.4935613
 119.0212068  62.5265782  77.0054918 118.6519290  61.9202776  75.6683634
 118.8831676  60.9582581  70.0038435 118.0999198  61.5004261  70.0976659
 119.5824421  61.4756560  70.4032676 118.7763295  48.9094593  72.3744325
 118.4061083  48.3565633  73.0625230 119.2722387  48.3052727  71.8219325
 116.6052494  59.3692088  79.4699342 117.3061953  60.0028571  79.6228737
 116.1347609  59.7106820  78.7094982 112.2020212  58.9028443  76.4030445
 112.7873648  58.1572131  76.5358349 112.0045050  59.2132400  77.2867109
 115.0558867  61.9379691  71.4192888 114.3869242  62.4225818  70.9356928
 114.9171737  62.1848911  72.3336266 106.7937866  51.4734043  75.1234888
 106.8321966  50.9397634  75.9172006 106.2878159  50.9469249  74.5045865
 119.1964135  63.9723434  78.0175546 119.7482443  64.1355056  78.7824631
 119.5370329  64.5627872  77.3455571 114.1728629  46.3198584  78.6197431
 114.2369955  47.1813415  78.2074828 114.1095749  45.7072585  77.8869789
 113.6480901  48.3921716  82.2670465 114.2752940  48.0098794  82.8807989
 112.7908820  48.1735918  82.6326157 110.4246444  50.1998145  68.1988820
 110.7199885  49.2908824  68.1455873 109.5234480  50.1785885  67.8769822
 113.9540691  48.2754142  74.1816368 113.2327277  48.8890110  74.0423842
 114.7433947  48.8111907  74.1033014 116.7567004  45.6108569  80.4557020
 117.2801406  45.8570865  81.2183329 116.5379338  46.4428603  80.0360157
 112.1534286  47.8812243  68.3228145 111.8246992  47.0009622  68.1403251
 112.5073656  47.8259912  69.2104534 115.2676109  48.1685213  68.6903623
 115.6072181  48.6971134  67.9682231 115.7148229  48.5065619  69.4662189
 117.9619549  46.5522264  78.1406691 117.6216370  45.7530077  78.5427370
 117.2558556  46.8523975  77.5683524 118.6136021  43.6371576  76.5934014
 119.4362091  43.1632054  76.4712904 118.8574085  44.4162060  77.0932700
 117.2544256  46.6659835  66.8896915 117.9752618  47.0441087  66.3860632
 116.6309560  47.3848711  66.9931893 116.1374600  50.3290697  74.4025992
 115.9919181  50.6431000  75.2950274 115.6599804  50.9475597  73.8496891
 117.9970983  47.3193245  74.4506882 117.9832552  46.4234338  74.1139180
 118.7143411  47.3263908  75.0845168 119.8497114  47.7530585  76.4960009
 119.5914891  48.6747656  76.4944340 119.3182154  47.3561019  77.1860473
 110.6120262  52.8696041  77.3413653 110.0673730  53.6455849  77.4733928
 111.4899612  53.2166846  77.1832775 117.4007879  46.2007625  69.7194452
 117.5223790  45.2724271  69.9185339 117.1109921  46.2146311  68.8072767
 111.3986284  51.9965937  80.2343810 110.6568020  52.1448573  80.8208441
 111.0779028  52.2574203  79.3710560 119.3429947  61.5381916  80.0324200
 119.6517073  61.2931062  80.9046900 120.1405429  61.7428554  79.5443070
 119.3650559  63.6919825  72.2629577 118.9255549  63.1996204  72.9562434
 120.1158676  63.1492793  72.0221652 111.8442898  59.8831366  72.2654205
 112.6700918  59.5835138  71.8852848 111.4936950  59.1138989  72.7143994
 116.8124431  59.2357834  74.3351878 116.1904440  58.5728539  74.0354106
 117.4829298  59.2618966  73.6525526 110.0451503  57.8017693  73.2243138
 109.2083411  57.3739867  73.0427140 110.0175148  57.9950136  74.1613930
 116.8848958  47.7139622  83.9284385 116.9337114  48.5901745  83.5462154
 117.4271473  47.1717015  83.3556028 116.3737938  57.7861758  67.8110339
 116.5226058  58.4697222  67.1577012 117.1804381  57.7666848  68.3259795
 119.1148247  48.4670995  80.6830743 118.2451556  48.7604561  80.4113332
 119.3507727  49.0511440  81.4038007 114.1290571  53.8126935  68.8171408
 113.8836613  52.9089265  69.0151618 114.2986485  53.8144086  67.8750886
 113.3986218  49.5455293  66.3157569 112.7055463  49.6199648  65.6597605
 113.1537970  48.7815637  66.8379086 119.8733343  60.2809888  65.2822086
 119.3007310  60.9000075  64.8292558 120.4466137  60.8309250  65.8162008
 118.4423059  49.5420677  62.5593024 117.5354514  49.2453790  62.6355738
 118.7199040  49.2450495  61.6927310 109.3600999  50.8627041  73.0092071
 109.0403784  50.0092349  72.7166445 108.8134428  51.0775619  73.7650038
 113.1380907  53.5789482  76.7261577 113.3566917  54.5106589  76.7449611
 113.5506681  53.2197456  77.5116381 118.0108772  49.1522687  86.1164326
 117.9105499  50.1017044  86.0476417 117.7930314  48.8240926  85.2440396
 117.2121844  46.4007612  62.7005003 118.0741008  46.7262511  62.9600821
 117.3972188  45.6139108  62.1878069 109.2289259  54.4829952  74.9785192
 108.5352731  54.0683905  74.4655147 109.9762250  54.5250489  74.3818611
 117.8740042  52.5819826  84.9329388 117.3907124  53.3820186  85.1393277
 117.9600981  52.5927771  83.9796832 111.1426002  54.4148206  72.8551207
 111.1196690  54.5135893  71.9033090 111.4526638  55.2613357  73.1768373
 113.8013380  56.4724361  76.9697821 114.7556633  56.4408303  76.9027753
 113.6025903  56.0114985  77.7848047 114.3912762  55.0425477  79.5368619
 115.2105651  55.5369556  79.5603456 114.6649570  54.1257445  79.5086187
 112.1563609  62.0143980  73.9868019 112.0218077  61.2544381  73.4206017
 111.7395671  62.7384880  73.5196808 115.3132734  62.9113297  74.1986462
 115.1965119  63.8558730  74.0965152 114.4925181  62.6086859  74.5872261
 109.6447676  49.3763611  80.2360816 110.2906540  48.8662565  80.7248041
 109.4364827  50.1132293  80.8104241 118.1651287  43.6403656  65.9884712
 118.1529956  44.5845495  66.1452983 119.0574709  43.4573801  65.6944174
 116.3387249  63.5641559  77.4142390 117.2414495  63.5965170  77.7308885
 116.1124619  62.6342010  77.4288726 118.0940851  62.3172546  74.0752469
 117.1436482  62.3174408  73.9616841 118.3973337  61.5705280  73.5588504
 113.9845167  46.5231228  84.3335830 114.8476629  46.1668033  84.5439155
 113.4110578  46.1845123  85.0211235 118.0563645  68.7225368  72.8517421
 118.7434685  68.4087098  72.2638436 117.9011773  69.6266732  72.5784673
 117.6331621  66.8025961  75.1234888 117.6715720  66.2689552  75.9172006
 117.1271914  66.2761167  74.5045865 120.1994754  66.1918958  73.0092071
 119.8797538  65.3384267  72.7166445 119.6528182  66.4067536  73.7650038
  95.2639697   9.5124581  56.6691214  95.1863727  10.4632406  56.7479694
  94.6601341   9.1670454  57.3266140  92.9026527  12.2609975  60.8139416
  93.1423125  12.8928500  61.4918434  92.0595723  11.9098015  61.1004775
  97.5176628  10.3201721  64.7420853  98.0694936  10.4833343  65.5069938
  97.8582821  10.9106159  64.0700877  90.4776101   8.3622268  60.7113326
  90.3430569   7.6022669  60.1451324  90.0608163   9.0863168  60.2442115
  93.6345227   9.2591585  60.9231769  93.5177611  10.2037017  60.8210459
  92.8137673   8.9565146  61.3117568  94.6599741   9.9119847  64.1387697
  95.5626988   9.9443457  64.4554192  94.4337111   8.9820298  64.1534033
 104.8182558  16.3074276  57.7901954 104.2547423  16.2164213  57.0218241
 104.7034953  15.4874181  58.2704446 109.4415526  15.6073651  67.7591268
 109.4304166  15.2126450  66.8871772 109.6036165  14.8739724  68.3525040
 102.3646990  17.8025468  60.6286174 103.1568282  17.4616292  60.2132473
 102.6043640  17.9120443  61.5488327 110.3982117  19.9745244  53.1016419
 109.7470097  20.5599324  52.7150432 111.1926480  20.5051439  53.1611456
 104.3237744  17.0634381  53.5003553 105.0968620  16.5163368  53.3616429
 104.6763143  17.9278630  53.7118014 106.1622787  18.3910763  66.7070452
 105.8712653  19.2956394  66.5917119 106.7979771  18.4327291  67.4214522
 107.0878994  15.7687612  63.2971812 107.6842566  15.5443634  62.5828775
 107.1453965  15.0272357  63.8997260 111.8757382  17.6635676  53.6385403
 111.2403215  17.7370302  54.3506308 111.5454789  18.2529275  52.9604482
 106.3800311  15.1255153  53.3346378 106.2636569  14.4500056  54.0027462
 106.4902571  14.6387527  52.5178531 111.1212672  18.0772179  63.7020246
 110.8213395  18.9797218  63.5936053 110.7763731  17.8104362  64.5541399
 104.5725153  14.5285976  59.7356950 103.6475650  14.3962190  59.9434642
 104.8209567  15.3080195  60.2326893 101.9333964  14.1719249  60.5700739
 102.0626346  14.4253728  61.4840151 101.2531416  14.7646957  60.2505394
 106.1033452  24.8416499  56.6691214 106.0257481  25.7924324  56.7479694
 105.4995095  24.4962372  57.3266140 106.8497054  14.8229818  68.8870548
 107.5911738  15.3614862  68.6105371 106.1434039  15.4496107  69.0442099
 112.3252393  16.9658958  67.4842709 112.7335749  16.5241369  66.7397341
 111.6029655  16.3911586  67.7376902 112.6481208  17.5260149  61.2394998
 112.0190070  17.6905863  60.5371066 112.2606870  17.9401758  62.0105962
 116.5270440  18.4614587  58.5939362 115.8421478  18.8413488  58.0436395
 116.6114289  19.0709913  59.3271309 108.2009170  17.2634557  58.5045083
 108.6647515  17.5422260  57.7149705 107.9365968  16.3618002  58.3218174
 105.0933251  16.8106039  61.4424846 105.6634608  17.2393307  60.8042331
 105.6841363  16.5288623  62.1409032 100.8803390  11.6441262  60.6151782
 100.0902444  11.8998791  60.1391892 101.3714637  12.4589600  60.7203822
 114.8967199  18.9846501  63.3657063 115.7184643  18.5826688  63.0839744
 114.8929602  18.8814735  64.3173178 102.8318135  12.0085841  57.5735258
 102.0349299  12.1204536  58.0918754 102.6043728  12.3472494  56.7076149
 108.6623803  18.5330545  65.5217773 108.7268235  18.9950952  66.3575945
 107.9534727  17.9027909  65.6500083  99.1641093  11.8971752  63.0466772
  99.4149131  12.7818762  63.3124348  99.7000641  11.7176354  62.2741864
 108.3771821  20.1998652  55.3896753 108.2417495  21.0450188  55.8181601
 108.9181633  20.4017930  54.6262687 101.8301218  17.7174090  55.9624678
 102.3425739  18.5117340  56.1130243 102.4823931  17.0200380  55.8958280
 103.6396103  20.8339846  58.0447432 103.8162731  21.7557811  57.8568416
 104.4352936  20.5198266  58.4741811 102.9248459  12.8804478  67.9209595
 102.8101974  11.9789735  68.2216694 102.0692977  13.1268175  67.5694411
 110.0040297  20.8222219  69.5197095 109.5604151  20.0358597  69.2018000
 110.6657511  21.0101369  68.8540986 104.7627418  22.3518020  64.0457774
 105.3134843  22.2235083  63.2734768 103.9238894  22.6512909  63.6952667
 112.1021535  21.1025018  67.5478497 112.0840010  21.9233899  67.0558766
 113.0241455  20.9779094  67.7728638 108.5594589  18.6169148  68.3902005
 109.0922926  17.8557436  68.1601313 108.0308670  18.3242800  69.1326160
  99.7950135  16.0462744  56.7384249 100.6325357  16.4559753  56.5217957
  99.9728402  15.1062187  56.7084443 109.9247302  17.7455140  55.9020817
 109.3968663  17.0107900  55.5894055 109.4234805  18.5229817  55.6560785
 108.0699902  15.5635351  48.9055790 107.1626964  15.3324604  49.1046939
 108.5670934  14.7672970  49.0929772 110.9767981  24.2732858  51.8252476
 110.3029680  24.5764555  52.4337434 111.3633803  25.0761938  51.4757933
 109.2488136  15.6647946  53.4279780 108.3399355  15.3806978  53.5252250
 109.2783219  16.0847024  52.5683087 114.4807403  19.2754535  57.1970948
 114.0269730  18.4345445  57.2536138 113.8501370  19.9115933  57.5345728
 112.9240342  21.1131032  58.1320766 113.2163317  21.6736089  57.4133132
 113.4338963  21.4059593  58.8873925  99.8176306  13.3853460  57.4094982
  99.6200706  12.7922820  56.6846049  99.2622970  13.0805670  58.1270921
 108.9464223  17.2056689  50.7667859 108.5083653  16.4892548  50.3073496
 109.6874664  17.4332804  50.2052950 107.8873967  21.8911383  59.2214219
 107.8450146  22.1172229  58.2922751 108.8036666  21.6574757  59.3700020
 117.0906718  17.5490413  61.8355449 117.5243224  17.4565702  62.6838503
 117.8038298  17.5247914  61.1975465 106.0039768  18.7674412  59.0176182
 106.7980367  18.2724732  58.8158757 105.2931461  18.2392275  58.6543887
 110.8234613  21.1492507  63.3688549 110.8771635  21.7183444  64.1366265
 109.9549394  21.3194392  63.0042587 102.3122532  12.9117494  55.0935935
 101.3820120  12.8501949  55.3105897 102.4080004  12.3893446  54.2972576
 113.0137376  17.7420857  69.9429215 112.8622882  17.5131408  69.0259299
 113.0042055  18.6991458  69.9560560 109.7822712  15.3152769  64.9275481
 110.7114772  15.4663929  64.7544449 109.3613742  15.4036790  64.0724128
 108.5811044  19.3403434  62.6974019 108.4422130  18.9722218  63.5699957
 107.7925640  19.8551073  62.5257977 109.1759196  24.4412530  54.0399555
 109.3510952  23.9700573  54.8545178 108.4891984  25.0678296  54.2680816
 110.1316259  18.7185037  60.0862857 109.7966092  18.6785806  60.9820507
 109.6320205  18.0529752  59.6133267 104.1060503  14.1252667  65.6115438
 103.9680301  13.3932905  66.2126977 105.0165427  14.0361567  65.3299626
 113.0675451  16.0641071  50.3599916 112.4504622  15.3387899  50.2632969
 112.5991939  16.8250431  50.0166991 114.7229583  20.7739979  68.0205697
 114.6642129  20.0899199  67.3536280 115.1249101  21.5158969  67.5686323
 103.7420281  27.5901893  60.8139416 103.9816880  28.2220417  61.4918434
 102.8989478  27.2389933  61.1004775 114.7246990  18.7379563  66.2519676
 113.8373769  18.4005485  66.3746075 115.2945541  18.0062594  66.4888442
  96.3776137  15.0703655  59.5762728  97.0647177  14.7565385  58.9883743
  96.2224266  15.9745020  59.3029979 108.2548143  23.3981015  63.2180920
 108.1818315  24.2035987  63.7300224 107.8125536  23.5972981  62.3928941
 108.0437923  22.6352786  56.7283741 107.2605445  23.1774466  56.8221966
 108.7430668  23.1526765  57.1277982 110.7146827  23.2967850  65.3739078
 111.4274799  23.9315314  65.3014980 110.2236855  23.3931716  64.5579080
 112.4364354  17.2019102  56.9456370 111.5020632  17.3220565  56.7761074
 112.6141022  16.2991569  56.6816380 105.7658740  21.0462293  66.1944649
 106.4668200  21.6798776  66.3474043 105.2953855  21.3877025  65.4340288
 113.8913136  19.3880243  54.4792556 114.1672980  19.2736837  55.3886430
 113.0217635  18.9897728  54.4404729 110.5267200  23.6366594  58.1225370
 110.7089595  22.8188250  58.5853122 111.3500186  23.8534286  57.6850260
 110.8609366  22.5634779  55.3840418 111.3897132  22.0527233  54.7710580
 111.1237585  22.2477309  56.2485951 101.3626458  20.5798648  63.1275752
 101.9479895  19.8342336  63.2603656 101.1651297  20.8902605  64.0112416
 104.2165114  23.6149895  58.1438194 103.5475489  24.0996023  57.6602234
 104.0777983  23.8619116  59.0581573  95.9544113  13.1504248  61.8480195
  95.9928213  12.6167839  62.6417313  95.4484406  12.6239454  61.2291172
 108.3570382  25.6493639  64.7420853 108.9088690  25.8125260  65.5069938
 108.6976576  26.2398077  64.0700877 113.2081257  20.4754896  70.5969507
 113.7521160  21.0884855  70.1024462 112.6268101  21.0334475  71.1136520
  99.5852691  11.8768350  54.9234126  99.8806132  10.9679029  54.8701180
  98.6840726  11.8556090  54.6015129 111.4938769  23.5975614  61.7284535
 111.3689909  22.7965354  61.2195480 112.1517861  24.0921808  61.2398505
 113.5573678  21.3984635  63.3564085 112.6104013  21.2789986  63.2842412
 113.9056451  20.5107133  63.4390346 110.5620111  21.1937351  59.5568437
 110.4145074  20.2654058  59.7376007 111.3873605  21.2157441  59.0725512
 114.1654233  22.0165909  60.6433310 115.0900780  21.8108771  60.5057761
 113.9969536  21.7682311  61.5522651 113.9549549  22.5351577  55.9995401
 114.1286427  21.9697999  55.2469254 114.4478440  23.3352472  55.8174891
  99.7726509  14.5466246  64.0658960  99.2279977  15.3226054  64.1979234
 100.6505859  14.8937051  63.9078081 114.9424722  21.8518341  53.0992299
 115.6375626  22.4725034  53.3179614 115.2847872  21.0013693  53.3744677
 100.5592531  13.6736142  66.9589117  99.8174267  13.8218778  67.5453747
 100.2385275  13.9344408  66.0955866 116.8416145  19.3018047  54.6279630
 117.3667469  19.6405320  53.9028950 116.7538497  18.3665062  54.4442765
 108.5036194  23.2152121  66.7569507 108.8123320  22.9701267  67.6292206
 109.3011676  23.4198759  66.2688377 108.5256806  25.3690030  58.9874883
 108.0861796  24.8766409  59.6807740 109.2764923  24.8262998  58.7466959
 101.0049145  21.5601571  58.9899512 101.8307164  21.2605343  58.6098155
 100.6543197  20.7909193  59.4389300 105.9730678  20.9128039  61.0597185
 105.3510687  20.2498744  60.7599413 106.6435545  20.9389171  60.3770833
  99.2057750  19.4787897  59.9488445  98.3689658  19.0510072  59.7672446
  99.1781395  19.6720341  60.8859236 116.5310051  19.9350951  69.9330828
 115.7405595  19.9175089  69.3935328 116.2943405  20.4739244  70.6879865
 105.5344185  19.4631963  54.5355646 105.6832305  20.1467427  53.8822318
 106.3410628  19.4437053  55.0505101 118.1526123  19.2040358  67.4905578
 117.8610931  19.5670339  68.3269039 117.5398254  18.4907367  67.3118910
 103.2896818  15.4897140  55.5416715 103.0442860  14.5859470  55.7396925
 103.4592732  15.4914291  54.5996193 109.0339590  21.9580093  52.0067393
 108.4613557  22.5770280  51.5537865 109.6072384  22.5079455  52.5407315
 112.2536850  22.2417243  53.1375975 113.1867523  22.1762805  53.3408851
 112.1660063  23.0773510  52.6790508 114.8824867  21.5583114  50.0979923
 114.8038498  21.2242977  50.9915681 115.7034533  22.0504881  50.0971395
 109.3025081  17.3458652  70.8084103 110.2228091  17.5237251  71.0024149
 109.2674664  16.4014697  70.6563802  98.5207246  12.5397246  59.7337377
  98.2010031  11.6862554  59.4411751  97.9740674  12.7545824  60.4895345
 102.2987154  15.2559687  63.4506884 102.5173163  16.1876794  63.4694918
 102.7112928  14.8967661  64.2361688  98.3895506  16.1600157  61.7030499
  97.6958978  15.7454110  61.1900453  99.1368497  16.2020694  61.1063918
 107.0346289  14.2590031  71.6574694 106.5513371  15.0590391  71.8638583
 107.1207228  14.2697976  70.7042138 100.3032249  16.0918411  59.5796514
 100.2802937  16.1906098  58.6278397 100.6132885  16.9383562  59.9013680
 102.9619627  18.1494566  63.6943128 103.9162880  18.1178508  63.6273060
 102.7632150  17.6885190  64.5093354 103.5519009  16.7195682  66.2613926
 104.3711898  17.2139761  66.2848763 103.8255816  15.8027650  66.2331493
 101.3169855  23.6914185  60.7113326 101.1824323  22.9314586  60.1451324
 100.9001918  24.4155085  60.2442115 112.4528818  18.8751109  49.7189901
 113.1564668  19.0801111  50.3347557 111.7291467  19.4427871  49.9838985
 104.4738981  24.5883502  60.9231769 104.3571365  25.5328935  60.8210459
 103.6531428  24.2857064  61.3117568 114.3615516  19.3133638  51.7688361
 115.1961120  18.8814837  51.5865836 114.1999859  19.1415652  52.6965256
 111.3307315  18.1214663  72.4598263 112.1998475  18.2955316  72.0984898
 110.8514067  18.9409080  72.3373993 105.4993495  25.2411764  64.1387697
 106.4020742  25.2735375  64.4554192 105.2730865  24.3112215  64.1534033
 107.2547097  23.9942751  60.7997776 106.3042728  23.9944612  60.6862148
 107.5579584  23.2475485  60.2833810 115.6576313  31.6366194  57.7901954
 115.0941178  31.5456131  57.0218241 115.5428708  30.8166098  58.2704446
 120.2809280  30.9365569  67.7591268 120.2697921  30.5418367  66.8871772
 120.4429920  30.2031642  68.3525040 113.2040745  33.1317385  60.6286174
 113.9962037  32.7908210  60.2132473 113.4437395  33.2412360  61.5488327
 115.1631499  32.3926299  53.5003553 115.9362375  31.8455286  53.3616429
 115.5156898  33.2570548  53.7118014 117.0016541  33.7202681  66.7070452
 116.7106407  34.6248312  66.5917119 117.6373526  33.7619208  67.4214522
 117.9272748  31.0979529  63.2971812 118.5236320  30.8735552  62.5828775
 117.9847720  30.3564275  63.8997260 117.4997777  28.5518965  51.1322003
 117.7523297  28.0300486  50.3705466 116.5622336  28.3885110  51.2348686
 117.2194065  30.4547071  53.3346378 117.1030323  29.7791974  54.0027462
 117.3296325  29.9679445  52.5178531 119.5625606  29.9157218  57.0393067
 119.1983813  29.3887839  57.7505989 120.4192722  29.5255687  56.8659552
 119.2031093  24.9447117  52.0354416 119.3705496  25.8127354  52.4024887
 119.0128262  25.1074399  51.1115705 115.4118908  29.8577893  59.7356950
 114.4869404  29.7254107  59.9434642 115.6603321  30.6372112  60.2326893
 119.1820314  27.4004775  53.0201082 119.0619939  27.8461826  53.8586563
 118.4872902  27.7490093  52.4614621 112.7727719  29.5011167  60.5700739
 112.9020100  29.7545646  61.4840151 112.0925170  30.0938875  60.2505394
 116.9427206  40.1708417  56.6691214 116.8651236  41.1216242  56.7479694
 116.3388850  39.8254289  57.3266140 119.4344436  27.3436282  69.3252581
 118.6577770  27.9030202  69.3155445 120.0734999  27.8293065  69.8467451
 117.6890808  30.1521736  68.8870548 118.4305493  30.6906779  68.6105371
 116.9827794  30.7788024  69.0442099 119.5177218  27.2323483  64.8576266
 120.3638413  27.6562896  65.0010915 119.4575856  26.5757107  65.5514829
 119.0402924  32.5926475  58.5045083 119.5041270  32.8714178  57.7149705
 118.7759723  31.6909919  58.3218174 115.9327005  32.1397956  61.4424846
 116.5028363  32.5685225  60.8042331 116.5235117  31.8580541  62.1409032
 117.9771810  28.7149627  55.3134648 118.6795854  29.1670671  55.7808575
 117.6452439  28.0733446  55.9414541 116.4252172  27.3061384  69.6885858
 115.7950833  27.9877665  69.9221254 116.3188260  27.1944465  68.7438996
 111.7197144  26.9733180  60.6151782 110.9296198  27.2290708  60.1391892
 112.2108392  27.7881518  60.7203822 113.6711890  27.3377759  57.5735258
 112.8743053  27.4496453  58.0918754 113.4437482  27.6764411  56.7076149
 119.5017557  33.8622462  65.5217773 119.5661990  34.3242869  66.3575945
 118.7928481  33.2319827  65.6500083 110.0034847  27.2263670  63.0466772
 110.2542886  28.1110680  63.3124348 110.5394396  27.0468272  62.2741864
 119.2165575  35.5290570  55.3896753 119.0811250  36.3742105  55.8181601
 119.7575388  35.7309847  54.6262687 115.7032915  21.6082150  72.0511109
 115.3099860  21.0548348  72.7258753 116.5199055  21.9192728  72.4417626
 112.6694972  33.0466008  55.9624678 113.1819493  33.8409258  56.1130243
 113.3217685  32.3492298  55.8958280 114.4789857  36.1631764  58.0447432
 114.6556486  37.0849729  57.8568416 115.2746691  35.8490183  58.4741811
 118.6200876  23.0240029  69.6431365 119.3610589  23.6247182  69.5635828
 118.8518799  22.2817666  69.0849408 113.7642214  28.2096396  67.9209595
 113.6495729  27.3081653  68.2216694 112.9086731  28.4560093  67.5694411
 115.6021173  37.6809938  64.0457774 116.1528598  37.5527001  63.2734768
 114.7632649  37.9804827  63.6952667 119.3988344  33.9461066  68.3902005
 119.9316680  33.1849354  68.1601313 118.8702425  33.6534717  69.1326160
 110.6343889  31.3754662  56.7384249 111.4719111  31.7851670  56.5217957
 110.8122157  30.4354104  56.7084443 117.8897465  21.5064516  60.8911062
 118.7550462  21.3107325  60.5316951 117.9574974  21.2774868  61.8180419
 115.4959784  23.7366724  58.2627429 116.0703536  23.5141906  57.5300622
 116.0830766  23.8055419  59.0156030 115.8229371  25.7671185  52.2823314
 114.9866683  26.1045872  52.6032589 115.6834141  25.6320165  51.3450451
 117.7982452  20.6107973  56.9902498 117.1446864  20.2956990  56.3659113
 117.7562926  19.9883714  57.7162321 118.9093657  30.8927268  48.9055790
 118.0020718  30.6616522  49.1046939 119.4064689  30.0964888  49.0929772
 120.0881890  30.9939863  53.4279780 119.1793109  30.7098896  53.5252250
 120.1176974  31.4138942  52.5683087 110.6570060  28.7145377  57.4094982
 110.4594460  28.1214738  56.6846049 110.1016724  28.4097588  58.1270921
 118.6366784  28.6068484  59.5289576 118.6915394  27.6542320  59.4532052
 117.8257986  28.7627923  60.0130874 116.5759144  27.2245544  57.2879954
 115.7627010  27.5239714  57.6945147 117.0718138  26.8301232  58.0054437
 118.7267722  37.2203300  59.2214219 118.6843901  37.4464147  58.2922751
 119.6430421  36.9866675  59.3700020 116.0673219  24.7963899  62.9041189
 116.7072598  24.6552658  62.2064153 115.2350749  24.5098412  62.5279791
 116.8433523  34.0966329  59.0176182 117.6374121  33.6016650  58.8158757
 116.1325215  33.5684193  58.6543887 113.1516286  28.2409411  55.0935935
 112.2213874  28.1793867  55.3105897 113.2473758  27.7185364  54.2972576
 113.0701835  24.7664224  57.6814176 113.3308652  25.6809557  57.5723337
 113.8919007  24.2988667  57.8310789 114.5426760  26.1801981  64.8513001
 115.2149814  25.9719343  64.2025650 113.7156547  25.9824067  64.4118233
 119.4204799  34.6695351  62.6974019 119.2815884  34.3014136  63.5699957
 118.6319395  35.1842991  62.5257977 120.0152951  39.7704448  54.0399555
 120.1904706  39.2992491  54.8545178 119.3285739  40.3970214  54.2680816
 114.9454258  29.4544584  65.6115438 114.8074056  28.7224823  66.2126977
 115.8559181  29.3653484  65.3299626 117.5736558  29.1664544  65.0999118
 118.2836177  28.5257736  65.0585736 117.5305867  29.4177438  66.0225298
 116.2865492  26.1529761  66.9194757 115.7502849  25.7020500  67.5716353
 115.6982201  26.2875670  66.1765221 114.5814036  42.9193811  60.8139416
 114.8210634  43.5512335  61.4918434 113.7383232  42.5681851  61.1004775
 115.6967751  25.6118413  49.4821221 114.8197218  25.4907214  49.1183467
 116.1725504  24.8204491  49.2300109 107.2169891  30.3995573  59.5762728
 107.9040931  30.0857303  58.9883743 107.0618020  31.3036937  59.3029979
 112.0204614  25.2885769  64.0047752 111.9362802  24.6811439  63.2698161
 111.1987320  25.7794787  64.0057248 119.0941898  38.7272933  63.2180920
 119.0212069  39.5327905  63.7300224 118.6519291  38.9264899  62.3928941
 118.8831677  37.9644703  56.7283741 118.0999199  38.5066383  56.8221966
 119.5824423  38.4818683  57.1277982 118.7763296  25.9156716  59.0989631
 118.4061084  25.3627756  59.7870537 119.2722389  25.3114849  58.5464631
 116.6052495  36.3754211  66.1944649 117.3061954  37.0090694  66.3474043
 116.1347610  36.7168942  65.4340288 112.2020213  35.9090566  63.1275752
 112.7873650  35.1634254  63.2603656 112.0045051  36.2194522  64.0112416
 115.0558868  38.9441813  58.1438194 114.3869243  39.4287941  57.6602234
 114.9171738  39.1911034  59.0581573 106.7937868  28.4796166  61.8480195
 106.8321967  27.9459757  62.6417313 106.2878160  27.9531371  61.2291172
 119.1964137  40.9785557  64.7420853 119.7482445  41.1417178  65.5069938
 119.5370330  41.5689994  64.0700877 114.1728630  23.3260706  65.3442737
 114.2369956  24.1875537  64.9320135 114.1095750  22.7134708  64.6115096
 113.6480902  25.3983839  68.9915772 114.2752941  25.0160916  69.6053296
 112.7908821  25.1798041  69.3571464 110.4246445  27.2060268  54.9234126
 110.7199886  26.2970946  54.8701180 109.5234481  27.1848008  54.6015129
 113.9540692  25.2816265  60.9061675 113.2327278  25.8952232  60.7669148
 114.7433948  25.8174029  60.8278321 116.7567006  22.6170691  67.1802327
 117.2801408  22.8632988  67.9428636 116.5379339  23.4490726  66.7605464
 112.1534287  24.8874366  55.0473451 111.8246993  24.0071745  54.8648557
 112.5073657  24.8322034  55.9349841 115.2676110  25.1747336  55.4148929
 115.6072182  25.7033257  54.6927538 115.7148230  25.5127742  56.1907496
 117.9619551  23.5584386  64.8651997 117.6216371  22.7592199  65.2672677
 117.2558557  23.8586097  64.2928830 118.6136023  20.6433699  63.3179320
 119.4362092  20.1694177  63.1958211 118.8574086  21.4224182  63.8178007
 117.2544257  23.6721957  53.6142222 117.9752620  24.0503210  53.1105939
 116.6309561  24.3910834  53.7177200 116.1374601  27.3352819  61.1271299
 115.9919182  27.6493122  62.0195580 115.6599805  27.9537720  60.5742197
 117.9970984  24.3255367  61.1752188 117.9832553  23.4296461  60.8384486
 118.7143412  24.3326031  61.8090474 119.8497115  24.7592708  63.2205316
 119.5914893  25.6809778  63.2189646 119.3182155  24.3623142  63.9105780
 110.6120263  29.8758164  64.0658960 110.0673732  30.6517972  64.1979234
 111.4899613  30.2228968  63.9078081 117.4007880  23.2069748  56.4439759
 117.5223791  22.2786394  56.6430646 117.1109923  23.2208434  55.5318074
 111.3986285  29.0028060  66.9589117 110.6568021  29.1510695  67.5453747
 111.0779030  29.2636326  66.0955866 119.3429948  38.5444038  66.7569507
 119.6517074  38.2993185  67.6292206 120.1405430  38.7490677  66.2688377
 119.3650560  40.6981948  58.9874883 118.9255550  40.2058327  59.6807740
 120.1158677  40.1554916  58.7466959 111.8442899  36.8893489  58.9899512
 112.6700919  36.5897261  58.6098155 111.4936951  36.1201111  59.4389300
 116.8124432  36.2419957  61.0597185 116.1904441  35.5790662  60.7599413
 117.4829299  36.2681089  60.3770833 110.0451504  34.8079815  59.9488445
 109.2083412  34.3801990  59.7672446 110.0175149  35.0012259  60.8859236
 116.8848960  24.7201745  70.6529691 116.9337115  25.5963868  70.2707461
 117.4271474  24.1779138  70.0801334 116.3737939  34.7923880  54.5355646
 116.5226059  35.4759345  53.8822318 117.1804383  34.7728970  55.0505101
 119.1148248  25.4733117  67.4076050 118.2451558  25.7666683  67.1358638
 119.3507728  26.0573562  68.1283313 114.1290572  30.8189058  55.5416715
 113.8836614  29.9151388  55.7396925 114.2986487  30.8206208  54.5996193
 113.3986220  26.5517415  53.0402876 112.7055465  26.6261770  52.3842912
 113.1537972  25.7877759  53.5624393 119.8733345  37.2872011  52.0067393
 119.3007312  37.9062198  51.5537865 120.4466138  37.8371372  52.5407315
 118.4423060  26.5482800  49.2838331 117.5354516  26.2515913  49.3601044
 118.7199041  26.2512618  48.4172617 109.3601001  27.8689163  59.7337377
 109.0403785  27.0154471  59.4411751 108.8134429  28.0837741  60.4895345
 113.1380908  30.5851604  63.4506884 113.3566918  31.5168712  63.4694918
 113.5506682  30.2259579  64.2361688 118.0108774  26.1584810  72.8409633
 117.9105500  27.1079167  72.7721724 117.7930316  25.8303049  71.9685703
 117.2121845  23.4069735  49.4250310 118.0741009  23.7324633  49.6846127
 117.3972189  22.6201231  48.9123376 109.2289261  31.4892075  61.7030499
 108.5352732  31.0746028  61.1900453 109.9762252  31.5312611  61.1063918
 117.8740044  29.5881949  71.6574694 117.3907125  30.3882309  71.8638583
 117.9600983  29.5989894  70.7042138 111.1426003  31.4210329  59.5796514
 111.1196691  31.5198016  58.6278397 111.4526640  32.2675479  59.9013680
 113.8013381  33.4786484  63.6943128 114.7556635  33.4470426  63.6273060
 113.6025905  33.0177107  64.5093354 114.3912763  32.0487600  66.2613926
 115.2105652  32.5431678  66.2848763 114.6649571  31.1319568  66.2331493
 112.1563610  39.0206103  60.7113326 112.0218078  38.2606504  60.1451324
 111.7395672  39.7447003  60.2442115 115.3132736  39.9175420  60.9231769
 115.1965120  40.8620853  60.8210459 114.4925182  39.6148982  61.3117568
 109.6447677  26.3825733  66.9606123 110.2906541  25.8724687  67.4493348
 109.4364829  27.1194415  67.5349548 118.1651288  20.6465778  52.7130019
 118.1529958  21.5907618  52.8698290 119.0574710  20.4635924  52.4189480
 116.3387250  40.5703682  64.1387697 117.2414497  40.6027292  64.4554192
 116.1124620  39.6404133  64.1534033 118.0940852  39.3234669  60.7997776
 117.1436483  39.3236530  60.6862148 118.3973338  38.5767403  60.2833810
 113.9845168  23.5293351  71.0581137 114.8476630  23.1730155  71.2684462
 113.4110579  23.1907245  71.7456541 118.0563646  45.7287490  59.5762728
 118.7434686  45.4149220  58.9883743 117.9011775  46.6328855  59.3029979
 117.6331622  43.8088084  61.8480195 117.6715722  43.2751674  62.6417313
 117.1271915  43.2823289  61.2291172 120.1994755  43.1981081  59.7337377
 119.8797539  42.3446389  59.4411751 119.6528183  43.4129659  60.4895345
 116.9427207  17.1770539  43.3936520 116.8651237  18.1278364  43.4725001
 116.3388851  16.8316412  44.0511447 114.5814037  19.9255933  47.5384722
 114.8210635  20.5574457  48.2163741 113.7383234  19.5743973  47.8250082
 119.1964138  17.9847679  51.4666159 119.7482446  18.1479301  52.2315244
 119.5370331  18.5752117  50.7946184 112.1563611  16.0268226  47.4358633
 112.0218079  15.2668627  46.8696631 111.7395673  16.7509126  46.9687421
 115.3132737  16.9237543  47.6477075 115.1965121  17.8682975  47.5455765
 114.4925183  16.6211104  48.0362874 116.3387251  17.5765805  50.8633004
 117.2414498  17.6089415  51.1799499 116.1124621  16.6466256  50.8779339
 118.0563647  22.7349613  46.3008034 118.7434687  22.4211343  45.7129050
 117.9011776  23.6390977  46.0275286 117.6331623  20.8150206  48.5725502
 117.6715723  20.2813797  49.3662620 117.1271916  20.2885412  47.9536479
 120.1994756  20.2043204  46.4582684 119.8797541  19.3508512  46.1657058
 119.6528185  20.4191782  47.2140651  24.2617939  62.5962656 118.2025940
  23.5879638  62.8994353 118.8110898  24.6483761  63.3991737 117.8531397
  28.2274679  60.1748140 119.4765763  28.9225584  60.7954833 119.6953078
  28.5697830  59.3243491 119.7518141  25.5386808  60.5647042 119.5149439
  26.4717481  60.4992603 119.7182315  25.4510021  61.4003309 119.0563972
  28.1674824  59.8812912 116.4753387  28.0888456  59.5472776 117.3689145
  28.9884491  60.3734680 116.4744859  25.7378776  57.1980908 116.0963365
  26.4414626  57.4030910 116.7121021  25.0141425  57.7657669 116.3612448
  36.2749749  68.1533088 128.2417002  36.9128159  68.0339835 127.5380342
  36.1570592  69.1013932 128.3004954  28.9426271  69.9595992 124.1675417
  28.3791136  69.8685929 123.3991705  28.8278666  69.1395897 124.6477910
  34.5225829  73.6266960 119.4789882  33.8713809  74.2121040 119.0923896
  35.3170192  74.1573155 119.5384920  28.4481457  70.7156097 119.8777017
  29.2212333  70.1685084 119.7389892  28.8006855  71.5800347 120.0891478
  30.7847734  66.8748763 117.5095467  31.0373255  66.3530285 116.7478930
  29.8472293  66.7114909 117.6122150  35.8291017  65.8784542 125.3170210
  36.6154106  65.4603965 124.9660627  36.0929721  66.7830634 125.4851858
  36.0001095  71.3157392 120.0158867  35.3646927  71.3892019 120.7279771
  35.6698501  71.9050991 119.3377946  41.2299444  65.8159775 126.2203188
  41.9624616  65.2458992 126.4541018  40.4738800  65.4281375 126.6609694
  30.5044023  68.7776869 119.7119842  30.3880281  68.1021773 120.3800926
  30.6146283  68.2909243 118.8951995  32.8475564  68.2387016 123.4166531
  32.4833771  67.7117637 124.1279452  33.7042680  67.8485485 123.2433016
  32.4881051  63.2676916 118.4127879  32.6555453  64.1357153 118.7798350
  32.2978220  63.4304198 117.4889169  32.4670272  65.7234574 119.3974546
  32.3469897  66.1691624 120.2360026  31.7722860  66.0719891 118.8388084
  38.1655338  66.1956047 120.2254880  39.0773194  66.4283434 120.0502578
  37.6564985  66.7793091 119.6629959  36.7724920  71.1781865 127.6168462
  36.1433783  71.3427579 126.9144529  36.3850582  71.5923475 128.3879426
  40.6514152  72.1136303 124.9712825  39.9665190  72.4935204 124.4209859
  40.7358002  72.7231630 125.7044773  32.3252882  70.9156273 124.8818547
  32.7891228  71.1943976 124.0923169  32.0609680  70.0139718 124.6991637
  31.2621768  67.0379426 121.6908112  31.9645812  67.4900469 122.1582038
  30.9302397  66.3963245 122.3188005  39.0210912  72.6368218 129.7430526
  39.8428356  72.2348405 129.4613208  39.0173315  72.5336452 130.6946642
  47.1116905  68.9806966 126.0915498  46.3580613  68.4114364 125.9359502
  47.2464446  68.9469631 127.0386132  32.5015533  73.8520368 121.7670217
  32.3661208  74.6971904 122.1955065  33.0425345  74.0539646 121.0036151
  25.9544930  71.3695806 122.3398142  26.4669451  72.1639057 122.4903707
  26.6067643  70.6722097 122.2731744  23.9193847  69.6984461 123.1157713
  24.7569069  70.1081469 122.8991420  24.0972115  68.7583903 123.0857907
  35.8158279  67.3659541 118.8041546  35.3004903  68.1364146 119.0429933
  35.5435588  66.6924677 119.4274607  40.7892553  70.1191896 120.7394719
  40.0121996  69.7803055 120.2949881  41.4684034  70.1244519 120.0649684
  35.6044582  65.2386633 120.6301327  35.2994718  65.5532783 121.4811470
  36.5575024  65.3168053 120.6728660  34.0491014  71.3976857 122.2794281
  33.5212376  70.6629616 121.9667518  33.5478517  72.1751533 122.0334249
  39.0283860  69.5925877 127.3961327  38.3707535  70.2825139 127.4841456
  39.8324259  69.9822309 127.7395313  37.8389319  67.9470250 125.4465269
  38.3521201  68.5800242 125.9486979  38.4890543  67.3471445 125.0808629
  29.1079329  64.0900984 118.6596778  28.2716641  64.4275671 118.9806052
  28.9684099  63.9549964 117.7223915  32.1943614  69.2157067 115.2829254
  31.2870676  68.9846320 115.4820403  32.6914646  68.4194686 115.4703235
  35.1011693  77.9254574 118.2025940  34.4273392  78.2286271 118.8110898
  35.4877515  78.7283655 117.8531397  35.1005198  66.8211121 122.8226290
  35.8477017  67.3332518 122.5133412  35.3696787  66.4995174 123.6830683
  33.3731848  69.3169662 119.8053244  32.4643067  69.0328695 119.9025714
  33.4026932  69.7368740 118.9456551  38.6051115  72.9276251 123.5744412
  38.1513442  72.0867161 123.6309602  37.9745082  73.5637650 123.9119192
  37.5484035  63.8568237 124.8045079  36.8106792  63.3445624 125.1355322
  37.8010808  63.4168619 123.9928356  37.0484054  74.7652748 124.5094230
  37.3407029  75.3257805 123.7906595  37.5582675  75.0581309 125.2647389
  33.0707936  70.8578406 117.1441323  32.6327366  70.1414264 116.6846960
  33.8118376  71.0854520 116.5826414  29.8609102  65.5475342 123.6653418
  29.0476967  65.8469513 124.0718610  30.3568096  65.1531031 124.3827900
  32.0117680  75.5433099 125.5987683  31.9693858  75.7693945 124.6696215
  32.9280379  75.3096474 125.7473484  41.1881050  69.1335603 123.2017641
  41.0498949  69.3237199 122.2738830  40.8317269  69.8954985 123.6585692
  41.2150430  71.2012130 128.2128913  41.6486937  71.1087419 129.0611967
  41.9282011  71.1769630 127.5748929  30.1283480  72.4196128 125.3949646
  30.9224079  71.9246448 125.1932221  29.4175173  71.8913991 125.0317351
  26.4366244  66.5639210 121.4709398  25.5063832  66.5023665 121.6879360
  26.5323716  66.0415163 120.6746040  42.0765980  71.2435830 130.7461798
  42.2701870  72.1481641 130.9921073  41.9766598  70.7843249 131.5800383
  33.3002908  78.0934247 120.4173019  33.4754664  77.6222290 121.2318642
  32.6135696  78.7200013 120.6454280  34.2559972  72.3706753 126.4636320
  33.9209804  72.3307523 127.3593970  33.7563917  71.7051469 125.9906731
  37.1919163  69.7162787 116.7373380  36.5748334  68.9909615 116.6406433
  36.7235652  70.4772147 116.3940454  28.9817709  63.9348211 115.8594684
  28.1047175  63.8137012 115.4956931  29.4575462  63.1434290 115.6073573
  32.1681635  76.2874502 123.1057205  31.3849157  76.8296182 123.1995429
  32.8674380  76.8048481 123.5051446  43.3308043  67.8009497 127.3909702
  43.3197919  68.6834212 127.0203635  42.4625422  67.4481048 127.1964239
  36.5608066  70.8540819 123.3229834  35.6264345  70.9742281 123.1534538
  36.7384734  69.9513285 123.0589844  39.9480617  66.6958138 123.8579868
  40.4141070  67.5286129 123.7840170  40.3988118  66.2303119 124.5625126
  38.0156848  73.0401959 120.8566020  38.2916692  72.9258554 121.7659894
  37.1461347  72.6419444 120.8178193  34.6510912  77.2888310 124.4998833
  34.8333307  76.4709966 124.9626586  35.4743898  77.5056002 124.0623723
  34.9853078  76.2156495 121.7613882  35.5140844  75.7048950 121.1484044
  35.2481298  75.8999025 122.6259415  23.7096403  65.5290067 121.3007590
  24.0049844  64.6200745 121.2474644  22.8084439  65.5077806 120.9788592
  35.6182482  77.2497331 128.1057998  35.4933621  76.4487071 127.5968944
  36.2761573  77.7443524 127.6171968  37.6817390  75.0506351 129.7337549
  36.7347726  74.9311702 129.6615875  38.0300163  74.1628849 129.8163810
  34.6863823  74.8459067 125.9341901  34.5388786  73.9175775 126.1149471
  35.5117317  74.8679158 125.4498976  28.5526068  63.4977134 121.7922393
  28.8922140  64.0263055 121.0701001  28.9998188  63.8357540 122.5680959
  38.2897945  75.6687626 127.0206773  39.2144493  75.4630487 126.8831225
  38.1213249  75.4204027 127.9296115  30.5394215  61.9951756 119.9915686
  31.2602577  62.3733009 119.4879402  29.9159519  62.7140633 120.0950664
  34.6825338  62.6996905 120.9274018  34.8988952  63.5821543 120.6262846
  34.2019405  62.3083118 120.1979660  38.0793261  76.1873293 122.3768865
  38.2530139  75.6219716 121.6242717  38.5722153  76.9874188 122.1948355
  43.9332653  68.9509716 123.9959165  44.3763799  68.2017041 123.5978288
  43.0559163  68.9419853 123.6132897  39.0668434  75.5040058 119.4765763
  39.7619339  76.1246750 119.6953078  39.4091584  74.6535409 119.7518141
  40.9659857  72.9539763 121.0053094  41.4911181  73.2927036 120.2802414
  40.8782210  72.0186779 120.8216229  29.6587897  73.1153679 120.9129109
  29.8076017  73.7989143 120.2595782  30.4654340  73.0958769 121.4278565
  43.4765517  70.4214955 126.3881612  44.3112409  70.8604759 126.5519173
  43.6124646  69.9453608 125.5689858  27.4140530  69.1418857 121.9190178
  27.1686572  68.2381187 122.1170388  27.5836444  69.1436007 120.9769656
  26.6836177  64.8747214 119.4176340  25.9905422  64.9491569 118.7616376
  26.4387929  64.1107558 119.9397857  33.1583302  75.6101809 118.3840857
  32.5857270  76.2291996 117.9311329  33.7316096  76.1601171 118.9180779
  36.3780562  75.8938959 119.5149439  37.3111235  75.8284521 119.7182315
  36.2903775  76.7295226 119.0563972  39.0068579  75.2104830 116.4753387
  38.9282210  74.8764693 117.3689145  39.8278246  75.7026598 116.4744859
  41.7046770  68.0766569 129.6829705  41.6723090  67.1382570 129.8689389
  42.3147394  68.1550606 128.9495530  33.5430101  66.9462622 115.7256909
  34.4889206  66.8168830 115.7945327  33.1644346  66.2077284 116.2026337
  47.5223320  69.1382576 128.8235742  48.2526708  68.8767864 129.3843445
  46.9130265  68.4011298 128.8637810  45.6038617  67.2790439 129.4210193
  44.8771781  67.1446403 128.8126685  45.1885904  67.5867267 130.2266911
  31.7273018  64.8712598 115.6611795  30.8204473  64.5745711 115.7374508
  32.0048999  64.5742417 114.7946081  30.4971803  61.7299534 115.8023774
  31.3590967  62.0554432 116.0619591  30.6822147  60.9431030 115.2896840
  38.6504439  60.6028060 122.9458997  38.0703108  61.2612864 122.5637049
  38.3840372  59.7805405 122.5346414  37.4329317  62.7628151 122.0015345
  36.5455172  63.0477801 121.7835540  37.8483306  62.6021914 121.1542622
  40.7843853  62.7874672 125.7169684  41.5604243  63.2771124 125.9894301
  40.0591987  63.2132726 126.1741554  43.2216412  63.5002291 126.7743625
  43.8160903  63.2598027 126.0636933  43.2942996  62.7809421 127.4017161
  36.5772531  72.5272825 116.0963365  37.2808381  72.7322828 116.7121021
  35.8535179  73.0949587 116.3612448  37.4070341  68.2782686 122.2165635
  37.3505542  68.7351238 121.3773268  37.9598683  67.5173371 122.0388478
  41.2175147  64.0672418 123.0415755  40.9612081  63.6669054 123.8723962
  40.5928015  64.7816212 122.9165894  45.5287485  66.8068492 125.5487046
  44.9687043  66.8761681 126.3218608  44.9230988  66.6309476 124.8286542
  38.4859228  72.9655354 118.1461825  39.3204832  72.5336553 117.9639300
  38.3243571  72.7937368 119.0738720  38.1405120  69.4687468 119.5118164
  38.0853924  69.3031739 118.5706608  37.5151176  70.1763501 119.6680354
  31.4501246  58.9695577 119.0903483  31.4379916  59.9137417 119.2471754
  32.3424668  58.7865722 118.7962944  39.7820025  85.2887910 124.1675417
  39.2184890  85.1977847 123.3991705  39.6672420  84.4687815 124.6477910
  45.3619584  88.9558878 119.4789882  44.7107564  89.5412958 119.0923896
  46.1563947  89.4865073 119.5384920  39.2875211  86.0448015 119.8777017
  40.0606087  85.4977002 119.7389892  39.6400610  86.9092264 120.0891478
  41.6241489  82.2040681 117.5095467  41.8767010  81.6822202 116.7478930
  40.6866048  82.0406826 117.6122150  46.6684772  81.2076459 125.3170210
  47.4547861  80.7895883 124.9660627  46.9323476  82.1122552 125.4851858
  46.8394849  86.6449310 120.0158867  46.2040682  86.7183936 120.7279771
  46.5092255  87.2342909 119.3377946  41.3437778  84.1068787 119.7119842
  41.2274036  83.4313690 120.3800926  41.4540037  83.6201161 118.8951995
  43.6869318  83.5678934 123.4166531  43.3227526  83.0409555 124.1279452
  44.5436434  83.1777403 123.2433016  43.3274805  78.5968834 118.4127879
  43.4949208  79.4649070 118.7798350  43.1371975  78.7596115 117.4889169
  39.5362620  83.5099610 126.1130414  38.6113117  83.3775824 126.3208106
  39.7847033  84.2893829 126.6100356  43.3064026  81.0526491 119.3974546
  43.1863652  81.4983542 120.2360026  42.6116615  81.4011809 118.8388084
  49.0049093  81.5247964 120.2254880  49.9166949  81.7575351 120.0502578
  48.4958740  82.1085009 119.6629959  46.3485067  77.7006000 128.4744741
  45.4869546  77.9987254 128.7661479  46.3747502  77.9176399 127.5425774
  43.1646637  86.2448191 124.8818547  43.6284982  86.5235894 124.0923169
  42.9003435  85.3431636 124.6991637  42.1015523  82.3671343 121.6908112
  42.8039566  82.8192387 122.1582038  41.7696151  81.7255162 122.3188005
  37.7955602  80.9899475 123.9508722  36.9986765  81.1018170 124.4692218
  37.5681194  81.3286127 123.0849613  43.3409287  89.1812286 121.7670217
  43.2054962  90.0263822 122.1955065  43.8819100  89.3831564 121.0036151
  36.7938685  86.6987724 122.3398142  37.3063205  87.4930974 122.4903707
  37.4461398  86.0014014 122.2731744  46.6901751  72.7042848 130.2969111
  46.3466020  73.5944490 130.2208221  47.0580714  72.5144506 129.4338696
  34.7587602  85.0276378 123.1157713  35.5962824  85.4373387 122.8991420
  34.9365869  84.0875820 123.0857907  46.6552034  82.6951459 118.8041546
  46.1398657  83.4656064 119.0429933  46.3829342  82.0216595 119.4274607
  44.2399145  77.5401160 123.8626784  43.3840741  77.1508010 123.6832423
  44.6526096  77.6193121 123.0026570  45.7698291  75.0747503 128.2618344
  45.2663087  75.0377638 127.4486149  46.0628898  75.9840246 128.3215000
  42.0141177  75.1586233 127.2684526  42.8794174  74.9629041 126.9090415
  42.0818686  74.9296585 128.1953882  51.6286308  85.4483814 120.7394719
  50.8515751  85.1094973 120.2949881  52.3077789  85.4536437 120.0649684
  46.4438337  80.5678551 120.6301327  46.1388472  80.8824700 121.4811470
  47.3968779  80.6459971 120.6728660  44.8884769  86.7268774 122.2794281
  44.3606130  85.9921534 121.9667518  44.3872271  87.5043451 122.0334249
  39.6203496  77.3888441 124.6400892  40.1947248  77.1663622 123.9074085
  40.2074479  77.4577135 125.3929494  39.9473083  79.4192902 118.6596778
  39.1110396  79.7567588 118.9806052  39.8077853  79.2841881 117.7223915
  41.9226164  74.2629690 123.3675962  41.2690576  73.9478707 122.7432577
  41.8806638  73.6405430 124.0935785  43.0337369  84.5448985 115.2829254
  42.1264431  84.3138238 115.4820403  43.5308401  83.7486604 115.4703235
  45.9405448  93.2546492 118.2025940  45.2667146  93.5578189 118.8110898
  46.3271270  94.0575572 117.8531397  45.1563904  80.7511623 127.6923609
  44.2386466  80.9726570 127.5345297  45.5724048  80.8257934 126.8335317
  45.9398952  82.1503039 122.8226290  46.6870771  82.6624436 122.5133412
  46.2090542  81.8287092 123.6830683  44.2125602  84.6461580 119.8053244
  43.3036822  84.3620612 119.9025714  44.2420686  85.0660658 118.9456551
  48.3877789  79.1860155 124.8045079  47.6500546  78.6737541 125.1355322
  48.6404563  78.7460537 123.9928356  48.4889417  71.9636407 125.3986848
  48.7948293  71.1033770 125.1112763  49.2142021  72.5554027 125.1985842
  34.7813773  82.3667094 123.7868446  34.5838172  81.7736454 123.0619513
  34.2260437  82.0619304 124.5044385  42.7610496  82.2590200 125.9063039
  42.8159106  81.3064037 125.8305516  41.9501698  82.4149639 126.3904338
  43.9101690  86.1870323 117.1441323  43.4721120  85.4706182 116.6846960
  44.6512131  86.4146438 116.5826414  40.7002856  80.8767260 123.6653418
  39.8870722  81.1761430 124.0718610  41.1961850  80.4822949 124.3827900
  40.1916931  78.4485615 129.2814653  40.8316310  78.3074374 128.5837616
  39.3594462  78.1620129 128.9053255  40.9677235  87.7488046 125.3949646
  41.7617833  87.2538366 125.1932221  40.2568927  87.2205909 125.0317351
  37.2759998  81.8931128 121.4709398  36.3457586  81.8315583 121.6879360
  37.3717470  81.3707080 120.6746040  37.1945547  78.4185940 124.0587640
  37.4552365  79.3331274 123.9496800  38.0162720  77.9510383 124.2084253
  44.1396663  93.4226164 120.4173019  44.3148419  92.9514207 121.2318642
  43.4529451  94.0491930 120.6454280  48.0312918  85.0454705 116.7373380
  47.4142088  84.3201533 116.6406433  47.5629406  85.8064065 116.3940454
  39.8211464  79.2640129 115.8594684  38.9440930  79.1428930 115.4956931
  40.2969217  78.4726207 115.6073573  46.3172040  77.4261049 125.7491410
  46.8140739  76.6731011 125.4292481  45.5459021  77.4625366 125.1834620
  47.4001820  86.1832736 123.3229834  46.4658099  86.3034199 123.1534538
  47.5778489  85.2805203 123.0589844  42.9007009  79.5678432 125.4763095
  42.5304796  79.0149472 126.1644000  43.3966101  78.9636565 124.9238095
  50.7874372  82.0250055 123.8579868  51.2534824  82.8578047 123.7840170
  51.2381872  81.5595037 124.5625126  48.8550603  88.3693877 120.8566020
  49.1310447  88.2550471 121.7659894  47.9855102  87.9711362 120.8178193
  48.7591035  74.3930642 127.8970769  47.8454114  74.6234869 128.0652976
  49.1884136  74.4769087 128.7484802  34.5490157  80.8581984 121.3007590
  34.8443599  79.9492663 121.2474644  33.6478193  80.8369724 120.9788592
  38.0784404  78.9337981 127.2835139  37.3570990  79.5473949 127.1442612
  38.8677660  79.4695746 127.2051785  36.2777999  78.5396082 121.4246915
  35.9490705  77.6593461 121.2422021  36.6317370  78.4843751 122.3123304
  39.3919822  78.8269052 121.7922393  39.7315895  79.3554973 121.0701001
  39.8391943  79.1649458 122.5680959  42.0863263  77.2106103 131.2425461
  41.7460083  76.4113916 131.6446141  41.3802269  77.5107813 130.6702294
  42.7379735  74.2955415 129.6952784  43.5605804  73.8215893 129.5731674
  42.9817798  75.0745899 130.1951470  41.3787969  77.3243673 119.9915686
  42.0996332  77.7024926 119.4879402  40.7553273  78.0432550 120.0950664
  45.5219092  78.0288822 120.9274018  45.7382707  78.9113460 120.6262846
  45.0413159  77.6375036 120.1979660  40.2618314  80.9874536 127.5044763
  40.1162894  81.3014839 128.3969044  39.7843517  81.6059436 126.9515661
  42.1214696  77.9777084 127.5525652  42.1076265  77.0818177 127.2157950
  42.8387125  77.9847747 128.1863938  43.9740827  78.4114424 129.5978780
  43.7158605  79.3331494 129.5963110  43.4425868  78.0144858 130.2879244
  41.5251592  76.8591464 122.8213222  41.6467504  75.9308110 123.0204110
  41.2353635  76.8730150 121.9091538  44.3942783  74.5446374 125.9579942
  44.4164480  74.6085707 125.0031922  44.8110842  73.7050883 126.1520448
  49.9062188  90.8331975 119.4765763  50.6013093  91.4538668 119.6953078
  50.2485339  89.9827327 119.7518141  51.8053612  88.2831681 121.0053094
  52.3304936  88.6218954 120.2802414  51.7175964  87.3478696 120.8216229
  40.4981651  88.4445597 120.9129109  40.6469772  89.1281061 120.2595782
  41.3048095  88.4250687 121.4278565  38.2534284  84.4710774 121.9190178
  38.0080326  83.5673104 122.1170388  38.4230199  84.4727925 120.9769656
  37.5229932  80.2039132 119.4176340  36.8299177  80.2783487 118.7616376
  37.2781684  79.4399475 119.9397857  46.1943588  71.7634733 126.8215831
  46.4745342  71.0957922 127.4476257  46.9794195  71.9563829 126.3090494
  43.9977057  90.9393727 118.3840857  43.4251024  91.5583914 117.9311329
  44.5709851  91.4893089 118.9180779  47.2174317  91.2230877 119.5149439
  48.1504990  91.1576439 119.7182315  47.1297530  92.0587144 119.0563972
  49.8462333  90.5396748 116.4753387  49.7675965  90.2056611 117.3689145
  50.6672000  91.0318515 116.4744859  44.3823855  82.2754540 115.7256909
  45.3282960  82.1460748 115.7945327  44.0038100  81.5369202 116.2026337
  50.3545740  73.9410546 125.6883801  50.1570561  73.6325634 126.5727133
  50.9645446  74.6672185 125.8181731  42.5666773  80.2004516 115.6611795
  41.6598228  79.9037629 115.7374508  42.8442754  79.9034334 114.7946081
  44.1828838  74.7441406 121.8156036  43.3729567  74.3988491 122.1911282
  44.8713255  74.4348950 122.4043647  46.1119387  73.8219453 123.4380332
  46.6650425  74.2414906 124.0970356  46.3489473  72.8955201 123.4803288
  41.3365557  77.0591451 115.8023774  42.1984721  77.3846350 116.0619591
  41.5215901  76.2722947 115.2896840  49.4898194  75.9319978 122.9458997
  48.9096863  76.5904782 122.5637049  49.2234126  75.1097322 122.5346414
  47.9401760  75.3325036 125.1480317  48.4401538  75.4441570 124.3394636
  48.5837368  75.0286088 125.7881125  48.2723072  78.0920068 122.0015345
  47.3848927  78.3769719 121.7835540  48.6877061  77.9313832 121.1542622
  51.6237608  78.1166589 125.7169684  52.3997998  78.6063042 125.9894301
  50.8985742  78.5424643 126.1741554  47.4166285  87.8564743 116.0963365
  48.1202135  88.0614745 116.7121021  46.6928934  88.4241505 116.3612448
  48.2464095  83.6074604 122.2165635  48.1899297  84.0643156 121.3773268
  48.7992438  82.8465289 122.0388478  52.0568901  79.3964336 123.0415755
  51.8005836  78.9960972 123.8723962  51.4321769  80.1108130 122.9165894
  49.3252983  88.2947272 118.1461825  50.1598586  87.8628471 117.9639300
  49.1637325  88.1229286 119.0738720  48.9798875  84.7979385 119.5118164
  48.9247679  84.6323657 118.5706608  48.3544930  85.5055418 119.6680354
  42.2895000  74.2987494 119.0903483  42.2773670  75.2429334 119.2471754
  43.1818422  74.1157640 118.7962944  46.1047120  70.8930271 123.3449420
  45.3379515  70.3388758 123.4906102  46.5157825  70.9652140 124.2063571
  50.6605218  94.5932047 115.8594684  49.7834684  94.4720848 115.4956931
  51.1362971  93.8018125 115.6073573  53.4060527  95.5296434 115.6611795
  52.4991982  95.2329547 115.7374508  53.6836508  95.2326252 114.7946081
  52.1759312  92.3883369 115.8023774  53.0378476  92.7138267 116.0619591
  52.3609656  91.6014865 115.2896840  53.1288755  89.6279412 119.0903483
  53.1167425  90.5721252 119.2471754  54.0212177  89.4449558 118.7962944
  24.2617940  39.6024779 104.9271247  23.5879639  39.9056476 105.5356204
  24.6483762  40.4053859 104.5776704  28.2274681  37.1810263 106.2011070
  28.9225585  37.8016955 106.4198385  28.5697831  36.3305614 106.4763448
  25.5386809  37.5709164 106.2394746  26.4717482  37.5054726 106.4427621
  25.4510022  38.4065431 105.7809278  28.1674826  36.8875035 103.1998693
  28.0888457  36.5534898 104.0934451  28.9884492  37.3796803 103.1990166
  25.7378777  34.2043030 102.8208672  26.4414628  34.4093033 103.4366327
  25.0141426  34.7719792 103.0857755  36.2749750  45.1595210 114.9662308
  36.9128160  45.0401958 114.2625648  36.1570593  46.1076054 115.0250261
  28.9426272  46.9658115 110.8920724  28.3791137  46.8748052 110.1237012
  28.8278667  46.1458019 111.3723217  34.5225831  50.6329083 106.2035189
  33.8713810  51.2183163 105.8169203  35.3170193  51.1635278 106.2630226
  28.4481458  47.7218220 106.6022323  29.2212334  47.1747207 106.4635199
  28.8006857  48.5862469 106.8136785  30.7847736  43.8810886 104.2340773
  31.0373256  43.3592407 103.4724236  29.8472295  43.7177031 104.3367457
  35.8291018  42.8846664 112.0415516  36.6154108  42.4666087 111.6905933
  36.0929723  43.7892756 112.2097165  36.0001096  48.3219515 106.7404173
  35.3646929  48.3954141 107.4525078  35.6698502  48.9113113 106.0623253
  41.2299446  42.8221898 112.9448495  41.9624617  42.2521114 113.1786324
  40.4738801  42.4343498 113.3855001  30.5044024  45.7838992 106.4365148
  30.3880282  45.1083895 107.1046232  30.6146284  45.2971366 105.6197301
  32.8475565  45.2449139 110.1411837  32.4833772  44.7179760 110.8524759
  33.7042681  44.8547608 109.9678323  32.4881052  40.2739039 105.1373186
  32.6555455  41.1419275 105.5043657  32.2978221  40.4366320 104.2134475
  32.4670273  42.7296696 106.1219853  32.3469898  43.1753747 106.9605333
  31.7722861  43.0782014 105.5633391  30.2277165  55.5000338 109.7709984
  30.1501195  56.4508163 109.8498465  29.6238809  55.1546210 110.4284910
  38.1655339  43.2018169 106.9500187  39.0773195  43.4345556 106.7747884
  37.6564986  43.7855214 106.3875265  36.7724922  48.1843988 114.3413768
  36.1433784  48.3489702 113.6389836  36.3850584  48.5985597 115.1124732
  40.6514153  49.1198426 111.6958132  39.9665192  49.4997327 111.1455165
  40.7358003  49.7293752 112.4290080  32.3252883  47.9218396 111.6063853
  32.7891229  48.2006099 110.8168476  32.0609682  47.0201840 111.4236944
  31.2621770  44.0441548 108.4153419  31.9645813  44.4962592 108.8827345
  30.9302398  43.4025367 109.0433312  39.0210913  49.6430340 116.4675833
  39.8428357  49.2410527 116.1858515  39.0173316  49.5398574 117.4191949
  47.1116906  45.9869089 112.8160804  46.3580614  45.4176487 112.6604809
  47.2464447  45.9531753 113.7631439  32.5015534  50.8582491 108.4915524
  32.3661209  51.7034027 108.9200372  33.0425347  51.0601769 107.7281458
  25.9544932  48.3757929 109.0643449  26.4669452  49.1701179 109.2149013
  26.6067644  47.6784219 108.9977050  27.7639816  51.4923685 111.1466202
  27.9406445  52.4141650 110.9587186  28.5596650  51.1782104 111.5760582
  23.9193848  46.7046583 109.8403019  24.7569070  47.1143592 109.6236727
  24.0972116  45.7646025 109.8103213  35.8158280  44.3721664 105.5286852
  35.3004904  45.1426269 105.7675240  35.5435589  43.6986800 106.1519914
  40.7892555  47.1254019 107.4640026  40.0121997  46.7865178 107.0195188
  41.4684036  47.1306642 106.7894991  35.6044584  42.2448756 107.3546633
  35.2994719  42.5594905 108.2056777  36.5575026  42.3230176 107.3973966
  34.0491015  48.4038979 109.0039587  33.5212377  47.6691739 108.6912825
  33.5478518  49.1813656 108.7579556  39.0283861  46.5988000 114.1206634
  38.3707536  47.2887261 114.2086762  39.8324261  46.9884432 114.4640620
  37.8389320  44.9532372 112.1710576  38.3521202  45.5862364 112.6732285
  38.4890544  44.3533568 111.8053936  29.1079330  41.0963107 105.3842084
  28.2716642  41.4337793 105.7051359  28.9684100  40.9612086 104.4469221
  32.1943616  46.2219190 102.0074560  31.2870677  45.9908443 102.2065709
  32.6914648  45.4256809 102.1948542  35.1011695  54.9316697 104.9271247
  34.4273393  55.2348394 105.5356204  35.4877516  55.7345777 104.5776704
  35.1005199  43.8273244 109.5471596  35.8477018  44.3394641 109.2378718
  35.3696788  43.5057296 110.4075990  33.3731849  46.3231784 106.5298551
  32.4643068  46.0390817 106.6271020  33.4026933  46.7430863 105.6701857
  38.6051116  49.9338374 110.2989718  38.1513444  49.0929284 110.3554909
  37.9745083  50.5699772 110.6364498  37.5484036  40.8630360 111.5290386
  36.8106793  40.3507746 111.8600628  37.8010810  40.4230742 110.7173662
  37.0484056  51.7714871 111.2339536  37.3407030  52.3319928 110.5151902
  37.5582676  52.0643432 111.9892695  33.0707937  47.8640528 103.8686629
  32.6327367  47.1476387 103.4092267  33.8118378  48.0916643 103.3071721
  29.8609103  42.5537465 110.3898725  29.0476969  42.8531635 110.7963917
  30.3568097  42.1593154 111.1073207  32.0117681  52.5495222 112.3232989
  31.9693860  52.7756068 111.3941522  32.9280380  52.3158596 112.4718791
  41.1881052  46.1397725 109.9262948  41.0498950  46.3299321 108.9984137
  40.8317270  46.9017108 110.3830999  41.2150431  48.2074252 114.9374219
  41.6486938  48.1149541 115.7857273  41.9282012  48.1831753 114.2994235
  30.1283482  49.4258251 112.1194952  30.9224080  48.9308571 111.9177527
  29.4175174  48.8976114 111.7562658  34.9478326  51.8076346 116.4707320
  35.0015348  52.3767283 117.2385036  34.0793108  51.9778231 116.1061357
  26.4366245  43.5701332 108.1954705  25.5063833  43.5085788 108.4124667
  26.5323717  43.0477285 107.3991346  42.0765981  48.2497953 117.4707105
  42.2701871  49.1543763 117.7166380  41.9766599  47.7905372 118.3045690
  33.3002910  55.0996369 107.1418326  33.4754665  54.6284412 107.9563949
  32.6135698  55.7262135 107.3699587  34.2559973  49.3768875 113.1881627
  33.9209805  49.3369645 114.0839277  33.7563919  48.7113591 112.7152037
  37.1919164  46.7224910 103.4618687  36.5748335  45.9971738 103.3651739
  36.7235653  47.4834270 103.1185761  27.8663995  58.2485732 113.9158186
  28.1060593  58.8804256 114.5937205  27.0233191  57.8973772 114.2023545
  28.9817710  40.9410334 102.5839991  28.1047177  40.8199135 102.2202238
  29.4575463  40.1496412 102.3318880  32.3791857  54.0564854 116.3199690
  32.3062028  54.8619826 116.8318995  31.9369250  54.2556820 115.4947711
  32.1681636  53.2936624 109.8302512  31.3849158  53.8358305 109.9240736
  32.8674382  53.8110604 110.2296753  43.3308044  44.8071619 114.1155008
  43.3197920  45.6896335 113.7448942  42.4625423  44.4543170 113.9209545
  34.8390540  53.9551688 118.4757849  35.5518513  54.5899153 118.4033750
  34.3480569  54.0515554 117.6597850  36.5608067  47.8602941 110.0475140
  35.6264346  47.9804404 109.8779845  36.7384736  46.9575408 109.7835150
  39.9480619  43.7020260 110.5825174  40.4141071  44.5348252 110.5085477
  40.3988119  43.2365242 111.2870433  38.0156850  50.0464082 107.5811326
  38.2916694  49.9320676 108.4905201  37.1461348  49.6481567 107.5423500
  34.6510914  54.2950433 111.2244140  34.8333308  53.4772088 111.6871892
  35.4743900  54.5118125 110.7869030  34.9853079  53.2218618 108.4859189
  35.5140846  52.7111072 107.8729351  35.2481299  52.9061148 109.3504722
  28.3408827  54.2733734 111.2456965  27.6719202  54.7579862 110.7621005
  28.2021697  54.5202955 112.1600343  32.4814096  56.3077478 117.8439623
  33.0332404  56.4709099 118.6088708  32.8220289  56.8981916 117.1719648
  23.7096404  42.5352189 108.0252897  24.0049845  41.6262868 107.9719950
  22.8084440  42.5139929 107.7033899  35.6182483  54.2559453 114.8303305
  35.4933622  53.4549193 114.3214251  36.2761574  54.7505647 114.3417275
  37.6817391  52.0568473 116.4582855  36.7347727  51.9373825 116.3861182
  38.0300164  51.1690972 116.5409117  34.6863825  51.8521190 112.6587207
  34.5388787  50.9237897 112.8394777  35.5117318  51.8741280 112.1744283
  28.5526069  40.5039257 108.5167700  28.8922141  41.0325178 107.7946308
  28.9998189  40.8419663 109.2926266  38.2897947  52.6749748 113.7452080
  39.2144494  52.4692610 113.6076531  38.1213250  52.4266150 114.6541422
  30.5394216  39.0013878 106.7160992  31.2602579  39.3795131 106.2124709
  29.9159520  39.7202755 106.8195970  34.6825339  39.7059027 107.6519325
  34.8988953  40.5883665 107.3508153  34.2019406  39.3145241 106.9224967
  38.0793263  53.1935416 109.1014172  38.2530140  52.6281838 108.3488024
  38.5722154  53.9936311 108.9193662  43.9332654  45.9571839 110.7204471
  44.3763800  45.2079164 110.3223595  43.0559164  45.9481975 110.3378203
  39.0668435  52.5102180 106.2011070  39.7619340  53.1308873 106.4198385
  39.4091585  51.6597531 106.4763448  40.9659858  49.9601886 107.7298401
  41.4911182  50.2989159 107.0047721  40.8782211  49.0248901 107.5461535
  32.6500519  56.0273869 112.0893654  32.2105509  55.5350248 112.7826511
  33.4008636  55.4846837 111.8485729  25.1292858  52.2185410 112.0918282
  25.9550878  51.9189182 111.7116925  24.7786910  51.4493032 112.5408071
  30.0974391  51.5711878 114.1615955  29.4754401  50.9082583 113.8618183
  30.7679258  51.5973010 113.4789603  29.6587898  50.1215802 107.6374416
  29.8076019  50.8051266 106.9841089  30.4654342  50.1020892 108.1523872
  43.4765519  47.4277077 113.1126919  44.3112410  47.8666881 113.2764479
  43.6124647  46.9515730 112.2935165  27.4140531  46.1480979 108.6435485
  27.1686573  45.2443309 108.8415695  27.5836446  46.1498130 107.7014963
  26.6836179  41.8809337 106.1421646  25.9905424  41.9553692 105.4861682
  26.4387931  41.1169680 106.6643163  33.1583304  52.6163932 105.1086163
  32.5857271  53.2354119 104.6556635  33.7316097  53.1663294 105.6426085
  36.3780563  52.9001082 106.2394746  37.3111237  52.8346644 106.4427621
  36.2903776  53.7357349 105.7809278  39.0068580  52.2166952 103.1998693
  38.9282212  51.8826816 104.0934451  39.8278247  52.7088720 103.1990166
  41.7046771  45.0828692 116.4075012  41.6723091  44.1444692 116.5934696
  42.3147395  45.1612728 115.6740837  33.5430102  43.9524745 102.4502216
  34.4889207  43.8230953 102.5190634  33.1644347  43.2139407 102.9271644
  47.5223321  46.1444699 115.5481049  48.2526710  45.8829987 116.1088752
  46.9130267  45.4073421 115.5883117  45.6038618  44.2852561 116.1455500
  44.8771782  44.1508526 115.5371991  45.1885905  44.5929390 116.9512218
  31.7273019  41.8774721 102.3857101  30.8204475  41.5807834 102.4619815
  32.0049000  41.5804539 101.5191387  30.4971804  38.7361656 102.5269080
  31.3590968  39.0616555 102.7864898  30.6822148  37.9493152 102.0142146
  38.6504440  37.6090183 109.6704303  38.0703109  38.2674987 109.2882356
  38.3840373  36.7867527 109.2591721  37.4329318  39.7690273 108.7260652
  36.5455173  40.0539924 108.5080846  37.8483308  39.6084037 107.8787929
  40.7843855  39.7936794 112.4414991  41.5604245  40.2833247 112.7139608
  40.0591989  40.2194848 112.8986860  43.2216413  40.5064413 113.4988932
  43.8160904  40.2660149 112.7882240  43.2942997  39.7871544 114.1262468
  25.4413569  54.3498024 113.8132096  25.3068037  53.5898425 113.2470094
  25.0245631  55.0738924 113.3460885  36.5772532  49.5334948 102.8208672
  37.2808382  49.7384950 103.4366327  35.8535181  50.1011710 103.0857755
  37.4070342  45.2844809 108.9410942  37.3505544  45.7413361 108.1018574
  37.9598685  44.5235494 108.7633785  41.2175148  41.0734541 109.7661061
  40.9612082  40.6731177 110.5969269  40.5928016  41.7878335 109.6411200
  45.5287486  43.8130614 112.2732353  44.9687044  43.8823804 113.0463915
  44.9230989  43.6371599 111.5531849  28.5982695  55.2467341 114.0250539
  28.4815079  56.1912774 113.9229229  27.7775141  54.9440903 114.4136338
  38.4859229  49.9717477 104.8707132  39.3204833  49.5398676 104.6884606
  38.3243572  49.7999491 105.7984026  38.1405122  46.4749590 106.2363471
  38.0853925  46.3093862 105.2951915  37.5151177  47.1825623 106.3925661
  31.4501247  35.9757699 105.8148789  31.4379917  36.9199539 105.9717060
  32.3424669  35.7927845 105.5208251  29.6237209  55.8995603 117.2406467
  30.5264456  55.9319213 117.5572962  29.3974579  54.9696054 117.2552803
  31.3790811  54.6526590 113.9016546  30.4286442  54.6528451 113.7880918
  31.6823297  53.9059324 113.3852581  47.1143504  60.4887128 114.9662308
  47.7521914  60.3693875 114.2625648  46.9964347  61.4367972 115.0250261
  43.9233211  60.4414556 114.9023833  43.5851722  60.3255621 114.0144368
  44.7922979  60.0405721 114.8824839  39.7820026  62.2950033 110.8920724
  39.2184892  62.2039970 110.1237012  39.6672421  61.4749937 111.3723217
  44.4052994  61.5949408 120.8610039  44.3941634  61.2002206 119.9890542
  44.5673633  60.8615481 121.4543810  37.3284458  63.7901224 113.7304945
  38.1205750  63.4492049 113.3151244  37.5681108  63.8996199 114.6507098
  45.3619585  65.9621000 106.2035189  44.7107565  66.5475081 105.8169203
  46.1563948  66.4927195 106.2630226  39.2875212  63.0510138 106.6022323
  40.0606088  62.5039125 106.4635199  39.6400611  63.9154387 106.8136785
  41.1260255  64.3786520 119.8089223  40.8350121  65.2832151 119.6935889
  41.7617239  64.4203047 120.5233292  42.0516462  61.7563368 116.3990582
  42.6480034  61.5319391 115.6847545  42.1091433  61.0148114 117.0016030
  41.6241490  59.2102804 104.2340773  41.8767011  58.6884325 103.4724236
  40.6866049  59.0468949 104.3367457  46.6684773  58.2138582 112.0415516
  47.4547862  57.7958005 111.6905933  46.9323477  59.1184674 112.2097165
  46.8394850  63.6511432 106.7404173  46.2040683  63.7246059 107.4525078
  46.5092257  64.2405031 106.0623253  52.0693200  58.1513815 112.9448495
  52.8018372  57.5813032 113.1786324  51.3132556  57.7635416 113.3855001
  41.3437779  61.1130910 106.4365148  41.2274037  60.4375813 107.1046232
  41.4540039  60.6263284 105.6197301  43.6869320  60.5741057 110.1411837
  43.3227527  60.0471678 110.8524759  44.5436436  60.1839526 109.9678323
  49.5918620  51.8635389 117.4043104  49.2601945  52.7330800 117.1804319
  48.9964234  51.5471673 118.0837134  43.3274807  55.6030956 105.1373186
  43.4949209  56.4711193 105.5043657  43.1371976  55.7658238 104.2134475
  46.0850140  64.0647935 116.8039016  45.7850863  64.9672974 116.6954824
  45.7401199  63.7980118 117.6560169  39.5362621  60.5161732 112.8375721
  38.6113118  60.3837946 113.0453412  39.7847035  61.2955951 113.3345663
  49.4847284  56.5830475 114.4836454  48.5764161  56.5145884 114.1895215
  49.4334879  57.0602420 115.3118279  43.3064028  58.0588614 106.1219853
  43.1863653  58.5045665 106.9605333  42.6116616  58.4073932 105.5633391
  36.8971432  60.1595006 113.6719510  37.0263814  60.4129485 114.5858922
  36.2168884  60.7522714 113.3524165  41.0670920  70.8292256 109.7709984
  40.9894949  71.7800081 109.8498465  40.4632563  70.4838128 110.4284910
  43.5588149  58.0020121 122.4271351  42.7821484  58.5614041 122.4174216
  44.1978713  58.4876904 122.9486221  51.3508930  54.7846914 116.2614328
  50.7083310  55.0779447 115.6154122  50.8463859  54.6699834 117.0667524
  49.0049094  58.5310087 106.9500187  49.9166950  58.7637474 106.7747884
  48.4958741  59.1147131 106.3875265  41.8134522  60.8105574 121.9889318
  42.5549206  61.3490618 121.7124142  41.1071507  61.4371863 122.1460870
  47.2889861  62.9534715 120.5861479  47.6973217  62.5117125 119.8416112
  46.5667123  62.3787342 120.8395672  43.6420931  57.8907322 117.9595036
  44.4882127  58.3146735 118.1029685  43.5819569  57.2340946 118.6533599
  47.6118676  63.5135906 114.3413768  46.9827539  63.6781620 113.6389836
  47.2244338  63.9277515 115.1124732  51.4907908  64.4490343 111.6958132
  50.8058946  64.8289245 111.1455165  51.5751757  65.0585670 112.4290080
  46.7920377  55.5511690 119.6176210  46.5481309  56.3053751 119.0810486
  47.0680307  55.9297038 120.4523457  48.7458840  62.0950302 118.2953476
  48.9575735  62.7382062 117.6187857  48.6988588  61.2612619 117.8275406
  46.3485069  54.7068123 115.1990048  45.4869548  55.0049377 115.4906785
  46.3747503  54.9238522 114.2671080  43.1646638  63.2510314 111.6063853
  43.6284983  63.5298017 110.8168476  42.9003436  62.3493758 111.4236944
  40.0570719  62.7981795 114.5443617  40.6272076  63.2269064 113.9061101
  40.6478831  62.5164380 115.2427802  42.1015524  59.3733466 108.4153419
  42.8039567  59.8254510 108.8827345  41.7696153  58.7317285 109.0433312
  40.5495886  57.9645223 122.7904628  39.9194546  58.6461503 123.0240025
  40.4431973  57.8528304 121.8457766  35.8440858  57.6317019 113.7170552
  35.0539912  57.8874547 113.2410663  36.3352105  58.4465356 113.8222593
  49.8604668  64.9722258 116.4675833  50.6822111  64.5702445 116.1858515
  49.8567070  64.8690492 117.4191949  37.7955603  57.9961598 110.6754029
  36.9986767  58.1080292 111.1937524  37.5681196  58.3348250 109.8094919
  43.6261271  64.5206301 118.6236543  43.6905703  64.9826708 119.4594715
  42.9172195  63.8903666 118.7518853  34.1278561  57.8847509 116.1485543
  34.3786599  58.7694519 116.4143119  34.6638109  57.7052111 115.3760635
  57.9510661  61.3161006 112.8160804  57.1974369  60.7468404 112.6604809
  58.0858202  61.2823671 113.7631439  43.3409289  66.1874409 108.4915524
  43.2054963  67.0325944 108.9200372  43.8819101  66.3893686 107.7281458
  36.7938686  63.7049847 109.0643449  37.3063207  64.4993097 109.2149013
  37.4461399  63.0076137 108.9977050  38.6033571  66.8215603 111.1466202
  38.7800199  67.7433568 110.9587186  39.3990404  66.5074022 111.5760582
  42.7444589  53.6823868 122.7450136  43.4854303  54.2831021 122.6654598
  42.9762512  52.9401505 122.1868178  37.8885927  58.8680235 121.0228365
  37.7739442  57.9665492 121.3235464  37.0330445  59.1143932 120.6713182
  44.9677765  66.8097975 122.6215866  44.5241619  66.0234354 122.3036770
  45.6294979  66.9977126 121.9559757  39.7264886  68.3393777 117.1476544
  40.2772311  68.2110840 116.3753538  38.8876362  68.6388666 116.7971437
  47.0659003  67.0900775 120.6497267  47.0477478  67.9109656 120.1577536
  47.9878923  66.9654850 120.8747408  43.5232057  64.6044905 121.4920775
  44.0560394  63.8433193 121.2620083  42.9946138  64.3118556 122.2344930
  46.6901752  49.7104970 117.0214417  46.3466022  50.6006612 116.9453528
  47.0580715  49.5206628 116.1584002  34.7587603  62.0338501 109.8403019
  35.5962825  62.4435509 109.6236727  34.9365870  61.0937943 109.8103213
  46.6552035  59.7013582 105.5286852  46.1398658  60.4718186 105.7675240
  46.3829343  59.0278718 106.1519914  44.2399146  54.5463282 110.5872091
  43.3840742  54.1570133 110.4077729  44.6526098  54.6255243 109.7271876
  45.7698293  52.0809626 114.9863650  45.2663088  52.0439761 114.1731456
  46.0628899  52.9902368 115.0460307  42.0141178  52.1648355 113.9929832
  42.8794175  51.9691164 113.6335722  42.0818687  51.9358707 114.9199189
  51.6286309  62.4545936 107.4640026  50.8515752  62.1157096 107.0195188
  52.3077790  62.4598559 106.7894991  46.4438338  57.5740674 107.3546633
  46.1388474  57.8886823 108.2056777  47.3968780  57.6522094 107.3973966
  44.8884770  63.7330897 109.0039587  44.3606132  62.9983657 108.6912825
  44.3872273  64.5105573 108.7579556  49.8677616  61.9279917 114.1206634
  49.2101290  62.6179179 114.2086762  50.6718015  62.3176349 114.4640620
  39.6203498  54.3950563 111.3646199  40.1947249  54.1725745 110.6319392
  40.2074480  54.4639258 112.1174800  48.6783075  60.2824290 112.1710576
  49.1914957  60.9154282 112.6732285  49.3284299  59.6825486 111.8053936
  39.9473085  56.4255024 105.3842084  39.1110397  56.7629711 105.7051359
  39.8077854  56.2904004 104.4469221  41.9226165  51.2691812 110.0921268
  41.2690578  50.9540829 109.4677883  41.8806639  50.6467553 110.8181091
  43.0337370  61.5511107 102.0074560  42.1264432  61.3200361 102.2065709
  43.5308402  60.7548727 102.1948542  45.9405449  70.2608614 104.9271247
  45.2667148  70.5640311 105.5356204  46.3271271  71.0637695 104.5776704
  45.1563906  57.7573746 114.4168916  44.2386467  57.9788693 114.2590604
  45.5724049  57.8320056 113.5580623  45.9398953  59.1565161 109.5471596
  46.6870772  59.6686559 109.2378718  46.2090543  58.8349214 110.4075990
  44.2125604  61.6523702 106.5298551  43.3036823  61.3682735 106.6271020
  44.2420687  62.0722781 105.6701857  49.4444871  65.2630292 110.2989718
  48.9907198  64.4221202 110.3554909  48.8138838  65.8991690 110.6364498
  48.3877791  56.1922278 111.5290386  47.6500547  55.6799664 111.8600628
  48.6404564  55.7522659 110.7173662  47.8877810  67.1006788 111.2339536
  48.1800785  67.6611845 110.5151902  48.3976431  67.3935349 111.9892695
  48.4889418  48.9698530 112.1232155  48.7948295  48.1095893 111.8358070
  49.2142023  49.5616150 111.9231149  34.7813774  59.3729216 110.5113753
  34.5838174  58.7798577 109.7864819  34.2260438  59.0681426 111.2289692
  42.7610498  59.2652323 112.6308346  42.8159107  58.3126159 112.5550823
  41.9501700  59.4211762 113.1149644  43.9101691  63.1932446 103.8686629
  43.4721121  62.4768305 103.4092267  44.6512132  63.4208561 103.3071721
  40.7002858  57.8829382 110.3898725  39.8870723  58.1823553 110.7963917
  41.1961852  57.4885071 111.1073207  42.8511435  67.8787139 112.3232989
  42.8087614  68.1047986 111.3941522  43.7674134  67.6450514 112.4718791
  46.2977069  58.3471207 119.2213619  46.6526457  58.5742680 120.0808084
  46.9449200  58.6789584 118.5990874  52.0274806  61.4689643 109.9262948
  51.8892705  61.6591239 108.9984137  51.6711025  62.2309026 110.3830999
  40.1916932  55.4547738 116.0059960  40.8316312  55.3136497 115.3082923
  39.3594463  55.1682251 115.6298562  52.0544186  63.5366170 114.9374219
  52.4880692  63.4441459 115.7857273  52.7675766  63.5123670 114.2994235
  40.9677236  64.7550168 112.1194952  41.7617835  64.2600489 111.9177527
  40.2568929  64.2268032 111.7562658  45.7872081  67.1368264 116.4707320
  45.8409103  67.7059200 117.2385036  44.9186862  67.3070149 116.1061357
  37.2760000  58.8993250 108.1954705  36.3457588  58.8377706 108.4124667
  37.3717472  58.3769203 107.3991346  37.1945549  55.4248063 110.7832947
  37.4552366  56.3393396 110.6742107  38.0162721  54.9572506 110.9329559
  38.6670474  56.8385820 117.9531771  39.3393527  56.6303182 117.3044420
  37.8400261  56.6407906 117.5137003  52.9159735  63.5789870 117.4707105
  53.1095625  64.4835681 117.7166380  52.8160353  63.1197290 118.3045690
  44.5696046  53.4647761 119.9697432  43.9223961  54.1637711 119.8761908
  45.3397061  53.8983905 120.3373680  47.9774844  63.7296613 123.0447985
  47.8260350  63.5007165 122.1278069  47.9679523  64.6867215 123.0579330
  44.7460180  61.3028526 118.0294252  45.6752240  61.4539686 117.8563219
  44.3251210  61.3912547 117.1742898  43.5448512  65.3279190 115.7992789
  43.4059598  64.9597975 116.6718727  42.7563108  65.8426830 115.6276747
  44.1396664  70.4288287 107.1418326  44.3148420  69.9576330 107.9563949
  43.4529452  71.0554053 107.3699587  45.0953727  64.7060793 113.1881627
  44.7603560  64.6661563 114.0839277  44.5957673  64.0405509 112.7152037
  39.0697971  60.1128423 118.7134208  38.9317769  59.3808662 119.3145747
  39.9802895  60.0237323 118.4318396  48.0312919  62.0516827 103.4618687
  47.4142090  61.3263656 103.3651739  47.5629407  62.8126188 103.1185761
  41.6980272  59.8248382 118.2017888  42.4079890  59.1841575 118.1604506
  41.6549580  60.0761277 119.1244069  49.6867051  66.7615736 121.1224467
  49.6279597  66.0774956 120.4555050  50.0886569  67.5034726 120.6705093
  40.4109206  56.8113600 120.0213527  39.8746563  56.3604339 120.6735124
  39.8225914  56.9459509 119.2783992  38.7057749  73.5777650 113.9158186
  38.9454348  74.2096174 114.5937205  37.8626946  73.2265690 114.2023545
  39.8211465  56.2702252 102.5839991  38.9440931  56.1491053 102.2202238
  40.2969218  55.4788330 102.3318880  49.6884458  64.7255320 119.3538447
  48.8011237  64.3881242 119.4764846  50.2583009  63.9938351 119.5907212
  31.3413605  61.0579411 112.6781498  32.0284645  60.7441142 112.0902513
  31.1861734  61.9620776 112.4048750  36.1448327  55.9469608 117.1066522
  36.0606516  55.3395278 116.3716932  35.3231034  56.4378626 117.1076018
  43.2185611  69.3856772 116.3199690  43.1455783  70.1911744 116.8318995
  42.7763004  69.5848738 115.4947711  43.0075391  68.6228542 109.8302512
  42.2242913  69.1650222 109.9240736  43.7068136  69.1402522 110.2296753
  46.3172041  54.4323172 112.4736717  46.8140741  53.6793134 112.1537787
  45.5459023  54.4687488 111.9079926  54.1701798  60.1363537 114.1155008
  54.1591675  61.0188253 113.7448942  53.3019178  59.7835088 113.9209545
  45.6784295  69.2843606 118.4757849  46.3912267  69.9191071 118.4033750
  45.1874323  69.3807472 117.6597850  47.4001822  63.1894859 110.0475140
  46.4658100  63.3096321 109.8779845  47.5778490  62.2867326 109.7835150
  42.9007010  56.5740555 112.2008402  42.5304797  56.0211595 112.8889307
  43.3966102  55.9698688 111.6483402  50.7874373  59.0312178 110.5825174
  51.2534825  59.8640170 110.5085477  51.2381874  58.5657160 111.2870433
  40.7296208  67.0338050 119.2963419  41.4305668  67.6674533 119.4492814
  40.2591323  67.3752781 118.5359059  48.8550604  65.3755999 107.5811326
  49.1310448  65.2612594 108.4905201  47.9855103  64.9773484 107.5423500
  48.7591036  51.3992765 114.6216076  47.8454116  51.6296992 114.7898283
  49.1884137  51.4831209 115.4730108  48.5297494  59.5882657 117.1215970
  47.8768945  59.8358564 116.4668423  48.9077874  58.7746795 116.7878447
  45.4904668  69.6242350 111.2244140  45.6727063  68.8064006 111.6871892
  46.3137654  69.8410042 110.7869030  45.8246834  68.5510535 108.4859189
  46.3534600  68.0402990 107.8729351  46.0875053  68.2353066 109.3504722
  44.5785067  60.3302468 123.6082007  43.9025704  60.2296597 124.2784382
  45.4012701  60.1741682 124.0718004  36.3263926  66.5674405 116.2294522
  36.9117363  65.8218093 116.3622426  36.1288765  66.8778361 117.1131186
  39.1802582  69.6025652 111.2456965  38.5112957  70.0871780 110.7621005
  39.0415451  69.8494872 112.1600343  30.9181581  59.1380005 114.9498965
  30.9565681  58.6043596 115.7436083  30.4121874  58.6115210 114.3309942
  43.3207850  71.6369396 117.8439623  43.8726158  71.8001017 118.6088708
  43.6614044  72.2273833 117.1719648  38.2972343  53.9844545 118.4461508
  38.3613670  54.8459376 118.0338905  38.2339464  53.3718547 117.7133866
  48.1718725  66.4630653 123.6988277  48.7158629  67.0760611 123.2043232
  47.5905569  67.0210231 124.2155290  34.5490159  57.8644107 108.0252897
  34.8443600  56.9554785 107.9719950  33.6478194  57.8431846 107.7033899
  46.4576237  69.5851371 114.8303305  46.3327377  68.7841111 114.3214251
  47.1155329  70.0797564 114.3417275  38.0784406  55.9400104 114.0080445
  37.3570991  56.5536071 113.8687919  38.8677661  56.4757868 113.9297091
  48.5211146  67.3860391 116.4582855  47.5741481  67.2665742 116.3861182
  48.8693919  66.4982889 116.5409117  40.8810719  53.2754530 120.2821097
  41.4045121  53.5216827 121.0447406  40.6623053  54.1074565 119.8624234
  36.2778000  55.5458205 108.1492222  35.9490706  54.6655584 107.9667328
  36.6317371  55.4905873 109.0368611  45.5257579  67.1813107 112.6587207
  45.3782542  66.2529815 112.8394777  46.3511073  67.2033198 112.1744283
  39.3919823  55.8331174 108.5167700  39.7315896  56.3617096 107.7946308
  39.8391944  56.1711581 109.2926266  49.1291701  68.0041666 113.7452080
  50.0538248  67.7984527 113.6076531  48.9607004  67.7558067 114.6541422
  42.0863264  54.2168225 117.9670768  41.7460085  53.4176038 118.3691447
  41.3802271  54.5169936 117.3947601  42.7379736  51.3017538 116.4198091
  43.5605805  50.8278016 116.2976981  42.9817800  52.0808021 116.9196777
  41.3787971  54.3305796 106.7160992  42.0996333  54.7087049 106.2124709
  40.7553275  55.0494673 106.8195970  45.5219093  55.0350945 107.6519325
  45.7382708  55.9175583 107.3508153  45.0413161  54.6437158 106.9224967
  40.2618315  57.9936658 114.2290069  40.1162896  58.3076961 115.1214351
  39.7843518  58.6121559 113.6760968  42.1214698  54.9839206 114.2770959
  42.1076267  54.0880300 113.9403257  42.8387126  54.9909870 114.9109245
  43.9740828  55.4176546 116.3224086  43.7158606  56.3393617 116.3208417
  43.4425869  55.0206981 117.0124550  48.9187017  68.5227334 109.1014172
  49.0923895  67.9573756 108.3488024  49.4115908  69.3228228 108.9193662
  34.7363977  60.5342003 117.1677730  34.1917445  61.3101811 117.2998005
  35.6143327  60.8812807 117.0096852  41.5251594  53.8653586 109.5458529
  41.6467505  52.9370233 109.7449416  41.2353636  53.8792272 108.6336844
  44.3942784  51.5508497 112.6825249  44.4164481  51.6147830 111.7277228
  44.8110843  50.7113006 112.8765755  54.7726408  61.2863756 110.7204471
  55.2157554  60.5371082 110.3223595  53.8952919  61.2773893 110.3378203
  49.9062190  67.8394098 106.2011070  50.6013094  68.4600791 106.4198385
  50.2485340  66.9889449 106.4763448  35.5229999  59.6611899 120.0607887
  34.7811735  59.8094534 120.6472518  35.2022743  59.9220165 119.1974637
  51.8053613  65.2893803 107.7298401  52.3304937  65.6281076 107.0047721
  51.7175965  64.3540819 107.5461535  43.4673662  69.2027877 119.8588277
  43.7760788  68.9577024 120.7310977  44.2649144  69.4074516 119.3707147
  43.4894274  71.3565787 112.0893654  43.0499264  70.8642165 112.7826511
  44.2402391  70.8138754 111.8485729  35.9686613  67.5477328 112.0918282
  36.7944632  67.2481099 111.7116925  35.6180665  66.7784950 112.5408071
  40.9368146  66.9003796 114.1615955  40.3148155  66.2374501 113.8618183
  41.6073013  66.9264928 113.4789603  34.1695218  65.4663654 113.0507215
  33.3327126  65.0385828 112.8691217  34.1418863  65.6596097 113.9878007
  51.4947519  65.9226707 123.0349599  50.7043063  65.9050846 122.4954098
  51.2580873  66.4615001 123.7898635  51.6145394  62.7719173 120.3482327
  51.6643399  62.6069181 121.2897850  51.5059317  61.9046433 119.9580208
  40.4981653  65.4507719 107.6374416  40.6469773  66.1343184 106.9841089
  41.3048096  65.4312809 108.1523872  48.9049156  58.7550102 121.6641634
  49.8059019  58.6156566 121.3725632  48.9797131  58.9204556 122.6039811
  43.2391962  56.1316956 120.5094820  42.3695271  56.4250522 120.2377409
  43.4751442  56.7157401 121.2302084  53.1163591  65.1916115 120.5924349
  52.8248399  65.5546096 121.4287810  52.5035722  64.4783123 120.4137681
  54.3159273  62.7568995 113.1126919  55.1506164  63.1958799 113.2764479
  54.4518402  62.2807648 112.2935165  51.3650779  60.3148730 119.0604407
  51.8404901  60.5076376 118.2523258  50.4416344  60.3707915 118.8147790
  38.2534286  61.4772897 108.6435485  38.0080328  60.5735227 108.8415695
  38.4230200  61.4790047 107.7014963  45.9430996  52.3496573 118.0260241
  46.4612939  53.0857600 117.7006729  45.5886128  52.6560566 118.8607000
  37.5229933  57.2101254 106.1421646  36.8299178  57.2845609 105.4861682
  37.2781685  56.4461598 106.6643163  46.1943590  48.7696856 113.5461137
  46.4745343  48.1020045 114.1721564  46.9794197  48.9625951 113.0335801
  43.9977058  67.9455850 105.1086163  43.4251025  68.5646037 104.6556635
  44.5709852  68.4955211 105.6426085  50.0652448  57.1914490 117.2932712
  51.0169871  57.2912587 117.3144936  49.8955898  56.3992758 117.8030797
  48.0866827  54.2770073 117.4792113  47.4916760  54.5575086 116.7838602
  47.8016524  54.7663974 118.2508854  47.2174318  68.2293000 106.2394746
  48.1504991  68.1638561 106.4427621  47.1297531  69.0649267 105.7809278
  49.8462335  67.5458870 103.1998693  49.7675966  67.2118734 104.0934451
  50.6672001  68.0380638 103.1990166  52.5440526  60.4120609 116.4075012
  52.5116846  59.4736610 116.5934696  53.1541149  60.4904646 115.6740837
  44.3823857  59.2816662 102.4502216  45.3282961  59.1522870 102.5190634
  44.0038102  58.5431324 102.9271644  52.6935014  57.2031653 116.4533295
  52.1774063  56.4190109 116.2663224  53.5774963  56.8750369 116.6179815
  50.3545741  50.9472668 112.4129108  50.1570562  50.6387757 113.2972440
  50.9645447  51.6734307 112.5427038  58.3617076  61.4736616 115.5481049
  59.0920464  61.2121904 116.1088752  57.7524021  60.7365338 115.5883117
  56.4432373  59.6144479 116.1455500  55.7165536  59.4800444 115.5371991
  56.0279660  59.9221307 116.9512218  44.2662549  63.3334409 123.9102873
  45.1865559  63.5113008 124.1042919  44.2312132  62.3890454 123.7582572
  42.5666774  57.2066639 102.3857101  41.6598229  56.9099751 102.4619815
  42.8442755  56.9096457 101.5191387  33.4844714  58.5273002 112.8356148
  33.1647499  57.6738310 112.5430522  32.9378142  58.7421580 113.5914115
  37.2624622  61.2435443 116.5525654  37.4810632  62.1752551 116.5713688
  37.6750396  60.8843418 117.3380458  44.1828840  51.7503528 108.5401342
  43.3729568  51.4050613 108.9156589  44.8713256  51.4411072 109.1288954
  46.1119388  50.8281575 110.1625639  46.6650426  51.2477029 110.8215662
  46.3489474  49.9017323 110.2048595  41.3365558  54.0653574 102.5269080
  42.1984722  54.3908472 102.7864898  41.5215903  53.2785070 102.0142146
  33.3532974  62.1475914 114.8049269  32.6596446  61.7329866 114.2919224
  34.1005965  62.1896450 114.2082688  49.4898195  52.9382100 109.6704303
  48.9096864  53.5966904 109.2882356  49.2234128  52.1159445 109.2591721
  47.9401761  52.3387158 111.8725624  48.4401540  52.4503693 111.0639943
  48.5837369  52.0348211 112.5126432  41.9983757  60.2465788 124.7593465
  41.5150839  61.0466148 124.9657354  42.0844696  60.2573733 123.8060909
  35.2669717  62.0794167 112.6815284  35.2440405  62.1781855 111.7297167
  35.5770353  62.9259318 113.0032450  37.9257095  64.1370322 116.7961898
  38.8800348  64.1054265 116.7291830  37.7269618  63.6760946 117.6112124
  38.5156477  62.7071439 119.3632696  39.3349366  63.2015517 119.3867533
  38.7893284  61.7903407 119.3350264  48.2723073  55.0982191 108.7260652
  47.3848928  55.3831841 108.5080846  48.6877062  54.9375954 107.8787929
  51.6237609  55.1228712 112.4414991  52.3997999  55.6125164 112.7139608
  50.8985743  55.5486766 112.8986860  54.0610168  55.8356331 113.4988932
  54.6554659  55.5952067 112.7882240  54.1336751  55.1163462 114.1262468
  36.2807323  69.6789942 113.8132096  36.1461791  68.9190343 113.2470094
  35.8639386  70.4030842 113.3460885  47.4166286  64.8626865 102.8208672
  48.1202137  65.0676868 103.4366327  46.6928935  65.4303627 103.0857755
  48.2464097  60.6136727 108.9410942  48.1899298  61.0705278 108.1018574
  48.7992439  59.8527411 108.7633785  52.0568903  56.4026459 109.7661061
  51.8005837  56.0023094 110.5969269  51.4321771  57.1170253 109.6411200
  56.3681240  59.1422532 112.2732353  55.8080798  59.2115721 113.0463915
  55.7624744  58.9663517 111.5531849  39.4376449  70.5759259 114.0250539
  39.3208833  71.5204691 113.9229229  38.6168896  70.2732821 114.4136338
  49.3252984  65.3009395 104.8707132  50.1598588  64.8690593 104.6884606
  49.1637327  65.1291408 105.7984026  48.9798876  61.8041508 106.2363471
  48.9247680  61.6385779 105.2951915  48.3544931  62.5117541 106.3925661
  33.7691391  57.0409572 120.0624893  34.4150255  56.5308526 120.5512118
  33.5608542  57.7778254 120.6368318  46.2944783  64.1090420 125.5617034
  47.1635943  64.2831072 125.2003669  45.8151535  64.9284837 125.4392763
  42.2895001  51.3049617 105.8148789  42.2773671  52.2491457 105.9717060
  43.1818423  51.1219762 105.5208251  40.4630963  71.2287521 117.2406467
  41.3658210  71.2611131 117.5572962  40.2368333  70.2987972 117.2552803
  42.2184565  69.9818507 113.9016546  41.2680196  69.9820369 113.7880918
  42.5217052  69.2351242 113.3852581  46.1047121  47.8992394 110.0694726
  45.3379517  47.3450880 110.2151409  46.5157826  47.9714262 110.9308878
  57.9537259  75.8179046 114.9662308  58.5915669  75.6985793 114.2625648
  57.8358102  76.7659890 115.0250261  54.7626965  75.7706474 114.9023833
  54.4245477  75.6547539 114.0144368  55.6316733  75.3697639 114.8824839
  50.6213781  77.6241950 110.8920724  50.0578646  77.5331887 110.1237012
  50.5066176  76.8041855 111.3723217  55.2446748  76.9241326 120.8610039
  55.2335389  76.5294124 119.9890542  55.4067388  76.1907398 121.4543810
  48.1678213  79.1193142 113.7304945  48.9599505  78.7783967 113.3151244
  48.4074863  79.2288117 114.6507098  56.2013340  81.2912918 106.2035189
  55.5501319  81.8766998 105.8169203  56.9957702  81.8219113 106.2630226
  50.1268967  78.3802055 106.6022323  50.8999843  77.8331042 106.4635199
  50.4794366  79.2446305 106.8136785  51.9654009  79.7078437 119.8089223
  51.6743875  80.6124068 119.6935889  52.6010994  79.7494965 120.5233292
  52.8910216  77.0855286 116.3990582  53.4873788  76.8611308 115.6847545
  52.9485188  76.3440031 117.0016030  52.4635245  74.5394721 104.2340773
  52.7160765  74.0176243 103.4724236  51.5259804  74.3760867 104.3367457
  57.5078527  73.5430500 112.0415516  58.2941617  73.1249923 111.6905933
  57.7717232  74.4476592 112.2097165  57.6788605  78.9803350 106.7404173
  57.0434438  79.0537976 107.4525078  57.3486011  79.5696949 106.0623253
  62.9086955  73.4805733 112.9448495  63.6412126  72.9104950 113.1786324
  62.1526310  73.0927333 113.3855001  52.1831533  76.4422827 106.4365148
  52.0667791  75.7667731 107.1046232  52.2933793  75.9555201 105.6197301
  54.5263074  75.9032974 110.1411837  54.1621281  75.3763595 110.8524759
  55.3830190  75.5131443 109.9678323  60.4312375  67.1927307 117.4043104
  60.0995700  68.0622718 117.1804319  59.8357988  66.8763591 118.0837134
  54.1668561  70.9322874 105.1373186  54.3342964  71.8003110 105.5043657
  53.9765730  71.0950156 104.2134475  56.9243894  79.3939853 116.8039016
  56.6244617  80.2964892 116.6954824  56.5794954  79.1272036 117.6560169
  50.3756376  75.8453650 112.8375721  49.4506872  75.7129864 113.0453412
  50.6240789  76.6247869 113.3345663  60.3241038  71.9122393 114.4836454
  59.4157916  71.8437802 114.1895215  60.2728634  72.3894338 115.3118279
  54.1457782  73.3880532 106.1219853  54.0257407  73.8337582 106.9605333
  53.4510370  73.7365849 105.5633391  47.7365187  75.4886923 113.6719510
  47.8657568  75.7421402 114.5858922  47.0562638  76.0814631 113.3524165
  51.9064674  86.1584173 109.7709984  51.8288704  87.1091998 109.8498465
  51.3026318  85.8130046 110.4284910  54.3981904  73.3312039 122.4271351
  53.6215238  73.8905959 122.4174216  55.0372467  73.8168822 122.9486221
  62.1902685  70.1138832 116.2614328  61.5477065  70.4071365 115.6154122
  61.6857613  69.9991752 117.0667524  59.8442848  73.8602005 106.9500187
  60.7560704  74.0929391 106.7747884  59.3352495  74.4439049 106.3875265
  52.6528276  76.1397492 121.9889318  53.3942961  76.6782536 121.7124142
  51.9465262  76.7663781 122.1460870  58.1283616  78.2826633 120.5861479
  58.5366972  77.8409043 119.8416112  57.4060877  77.7079260 120.8395672
  54.4814686  73.2199239 117.9595036  55.3275881  73.6438653 118.1029685
  54.4213324  72.5632864 118.6533599  58.4512431  78.8427823 114.3413768
  57.8221293  79.0073537 113.6389836  58.0638093  79.2569433 115.1124732
  62.3301662  79.7782261 111.6958132  61.6452701  80.1581162 111.1455165
  62.4145512  80.3877588 112.4290080  57.6314131  70.8803608 119.6176210
  57.3875063  71.6345668 119.0810486  57.9074062  71.2588955 120.4523457
  59.5852594  77.4242220 118.2953476  59.7969489  78.0673980 117.6187857
  59.5382342  76.5904537 117.8275406  57.1878823  70.0360041 115.1990048
  56.3263302  70.3341294 115.4906785  57.2141258  70.2530440 114.2671080
  54.0040392  78.5802231 111.6063853  54.4678738  78.8589934 110.8168476
  53.7397191  77.6785676 111.4236944  50.8964474  78.1273713 114.5443617
  51.4665831  78.5560981 113.9061101  51.4872585  77.8456298 115.2427802
  52.9409278  74.7025384 108.4153419  53.6433322  75.1546427 108.8827345
  52.6089907  74.0609203 109.0433312  51.3889640  73.2937140 122.7904628
  50.7588301  73.9753421 123.0240025  51.2825728  73.1820222 121.8457766
  46.6834612  72.9608936 113.7170552  45.8933666  73.2166465 113.2410663
  47.1745860  73.7757274 113.8222593  60.6998422  80.3014175 116.4675833
  61.5215866  79.8994363 116.1858515  60.6960825  80.1982410 117.4191949
  48.6349358  73.3253516 110.6754029  47.8380521  73.4372210 111.1937524
  48.4074950  73.6640168 109.8094919  54.4655025  79.8498219 118.6236543
  54.5299458  80.3118626 119.4594715  53.7565949  79.2195584 118.7518853
  44.9672315  73.2139427 116.1485543  45.2180354  74.0986437 116.4143119
  45.5031864  73.0344028 115.3760635  68.7904415  76.6452924 112.8160804
  68.0368123  76.0760322 112.6604809  68.9251956  76.6115588 113.7631439
  54.1803043  81.5166326 108.4915524  54.0448718  82.3617862 108.9200372
  54.7212856  81.7185604 107.7281458  50.6670383  67.5957906 125.1529879
  50.2737328  67.0424105 125.8277523  51.4836523  67.9068485 125.5436396
  47.6332441  79.0341764 109.0643449  48.1456961  79.8285015 109.2149013
  48.2855153  78.3368055 108.9977050  49.4427325  82.1507521 111.1466202
  49.6193954  83.0725485 110.9587186  50.2384159  81.8365940 111.5760582
  53.5838344  69.0115785 122.7450136  54.3248057  69.6122938 122.6654598
  53.8156267  68.2693423 122.1868178  48.7279682  74.1972152 121.0228365
  48.6133197  73.2957410 121.3235464  47.8724200  74.4435849 120.6713182
  55.8071519  82.1389893 122.6215866  55.3635374  81.3526271 122.3036770
  56.4688733  82.3269043 121.9559757  50.5658641  83.6685694 117.1476544
  51.1166066  83.5402758 116.3753538  49.7270117  83.9680583 116.7971437
  57.9052758  82.4192693 120.6497267  57.8871233  83.2401574 120.1577536
  58.8272678  82.2946768 120.8747408  54.3625812  79.9336822 121.4920775
  54.8954149  79.1725110 121.2620083  53.8339893  79.6410474 122.2344930
  57.5295507  65.0396888 117.0214417  57.1859776  65.9298530 116.9453528
  57.8974469  64.8498546 116.1584002  45.5981357  77.3630419 109.8403019
  46.4356579  77.7727427 109.6236727  45.7759625  76.4229861 109.8103213
  57.4945789  75.0305499 105.5286852  56.9792413  75.8010104 105.7675240
  57.2223098  74.3570635 106.1519914  55.0792900  69.8755200 110.5872091
  54.2234497  69.4862050 110.4077729  55.4919852  69.9547161 109.7271876
  56.6092047  67.4101543 114.9863650  56.1056843  67.3731678 114.1731456
  56.9022654  68.3194286 115.0460307  52.8534933  67.4940273 113.9929832
  53.7187930  67.2983082 113.6335722  52.9212442  67.2650625 114.9199189
  62.4680064  77.7837854 107.4640026  61.6909506  77.4449013 107.0195188
  63.1471545  77.7890477 106.7894991  57.2832093  72.9032591 107.3546633
  56.9782228  73.2178741 108.2056777  58.2362535  72.9814011 107.3973966
  55.7278524  79.0622815 109.0039587  55.1999886  78.3275574 108.6912825
  55.2266027  79.8397491 108.7579556  60.7071370  77.2571835 114.1206634
  60.0495045  77.9471097 114.2086762  61.5111770  77.6468267 114.4640620
  50.4597252  69.7242481 111.3646199  51.0341004  69.5017662 110.6319392
  51.0468234  69.7931175 112.1174800  59.5176829  75.6116208 112.1710576
  60.0308711  76.2446200 112.6732285  60.1678053  75.0117403 111.8053936
  50.7866839  71.7546942 105.3842084  49.9504151  72.0921629 105.7051359
  50.6471609  71.6195922 104.4469221  52.7619920  66.5983730 110.0921268
  52.1084332  66.2832747 109.4677883  52.7200394  65.9759470 110.8181091
  53.8731125  76.8803025 102.0074560  52.9658186  76.6492278 102.2065709
  54.3702157  76.0840644 102.1948542  56.7799203  85.5900532 104.9271247
  56.1060902  85.8932229 105.5356204  57.1665025  86.3929612 104.5776704
  55.9957660  73.0865663 114.4168916  55.0780221  73.3080610 114.2590604
  56.4117804  73.1611974 113.5580623  56.7792708  74.4857079 109.5471596
  57.5264527  74.9978476 109.2378718  57.0484297  74.1641132 110.4075990
  55.0519358  76.9815620 106.5298551  54.1430577  76.6974653 106.6271020
  55.0814442  77.4014698 105.6701857  60.2838625  80.5922209 110.2989718
  59.8300953  79.7513119 110.3554909  59.6532592  81.2283608 110.6364498
  59.2271545  71.5214195 111.5290386  58.4894302  71.0091582 111.8600628
  59.4798319  71.0814577 110.7173662  58.7271565  82.4298706 111.2339536
  59.0194539  82.9903763 110.5151902  59.2370185  82.7227267 111.9892695
  59.3283172  64.2990447 112.1232155  59.6342049  63.4387811 111.8358070
  60.0535777  64.8908068 111.9231149  45.6207528  74.7021134 110.5113753
  45.4231928  74.1090495 109.7864819  45.0654192  74.3973344 111.2289692
  53.6004252  74.5944240 112.6308346  53.6552862  73.6418077 112.5550823
  52.7895454  74.7503679 113.1149644  54.7495446  78.5224363 103.8686629
  54.3114876  77.8060222 103.4092267  55.4905887  78.7500478 103.3071721
  51.5396612  73.2121300 110.3898725  50.7264478  73.5115471 110.7963917
  52.0355606  72.8176989 111.1073207  53.6905190  83.2079057 112.3232989
  53.6481369  83.4339903 111.3941522  54.6067889  82.9742432 112.4718791
  57.1370824  73.6763125 119.2213619  57.4920211  73.9034598 120.0808084
  57.7842955  74.0081501 118.5990874  62.8668561  76.7981561 109.9262948
  62.7286459  76.9883156 108.9984137  62.5104779  77.5600943 110.3830999
  51.0310687  70.7839656 116.0059960  51.6710066  70.6428415 115.3082923
  50.1988217  70.4974169 115.6298562  62.8937940  78.8658088 114.9374219
  63.3274447  78.7733377 115.7857273  63.6069521  78.8415588 114.2994235
  51.8070991  80.0842086 112.1194952  52.6011589  79.5892406 111.9177527
  51.0962683  79.5559949 111.7562658  56.6265835  82.4660182 116.4707320
  56.6802857  83.0351118 117.2385036  55.7580617  82.6362067 116.1061357
  48.1153754  74.2285168 108.1954705  47.1851342  74.1669623 108.4124667
  48.2111226  73.7061121 107.3991346  48.0339303  70.7539981 110.7832947
  48.2946120  71.6685314 110.6742107  48.8556476  70.2864423 110.9329559
  49.5064229  72.1677738 117.9531771  50.1787282  71.9595100 117.3044420
  48.6794015  71.9699824 117.5137003  63.7553490  78.9081788 117.4707105
  63.9489380  79.8127599 117.7166380  63.6554108  78.4489207 118.3045690
  55.4089801  68.7939679 119.9697432  54.7617716  69.4929628 119.8761908
  56.1790816  69.2275823 120.3373680  58.8168598  79.0588531 123.0447985
  58.6654105  78.8299083 122.1278069  58.8073278  80.0159132 123.0579330
  55.5853935  76.6320444 118.0294252  56.5145995  76.7831603 117.8563219
  55.1644965  76.7204464 117.1742898  54.3842267  80.6571108 115.7992789
  54.2453352  80.2889892 116.6718727  53.5956863  81.1718748 115.6276747
  54.9790419  85.7580205 107.1418326  55.1542174  85.2868248 107.9563949
  54.2923207  86.3845971 107.3699587  55.9347482  80.0352711 113.1881627
  55.5997314  79.9953481 114.0839277  55.4351427  79.3697427 112.7152037
  49.9091726  75.4420341 118.7134208  49.7711524  74.7100580 119.3145747
  50.8196649  75.3529241 118.4318396  58.8706673  77.3808745 103.4618687
  58.2535844  76.6555573 103.3651739  58.4023162  78.1418105 103.1185761
  52.5374026  75.1540300 118.2017888  53.2473645  74.5133492 118.1604506
  52.4943335  75.4053195 119.1244069  60.5260805  82.0907653 121.1224467
  60.4673351  81.4066874 120.4555050  60.9280323  82.8326643 120.6705093
  51.2502960  72.1405518 120.0213527  50.7140317  71.6896256 120.6735124
  50.6619669  72.2751427 119.2783992  49.5451504  88.9069567 113.9158186
  49.7848102  89.5388091 114.5937205  48.7020700  88.5557607 114.2023545
  50.6605219  71.5994169 102.5839991  49.7834686  71.4782970 102.2202238
  51.1362972  70.8080248 102.3318880  60.5278212  80.0547237 119.3538447
  59.6404991  79.7173159 119.4764846  61.0976763  79.3230269 119.5907212
  42.1807359  76.3871329 112.6781498  42.8678399  76.0733059 112.0902513
  42.0255488  77.2912694 112.4048750  46.9842082  71.2761526 117.1066522
  46.9000270  70.6687195 116.3716932  46.1624788  71.7670544 117.1076018
  54.0579366  84.7148690 116.3199690  53.9849537  85.5203661 116.8318995
  53.6156759  84.9140656 115.4947711  53.8469145  83.9520460 109.8302512
  53.0636667  84.4942140 109.9240736  54.5461891  84.4694439 110.2296753
  57.1565796  69.7615089 112.4736717  57.6534495  69.0085052 112.1537787
  56.3852777  69.7979406 111.9079926  65.0095553  75.4655455 114.1155008
  64.9985429  76.3480170 113.7448942  64.1412932  75.1127006 113.9209545
  56.5178049  84.6135524 118.4757849  57.2306022  85.2482989 118.4033750
  56.0268078  84.7099390 117.6597850  58.2395576  78.5186776 110.0475140
  57.3051855  78.6388239 109.8779845  58.4172245  77.6159243 109.7835150
  53.7400764  71.9032472 112.2008402  53.3698552  71.3503513 112.8889307
  54.2359857  71.2990606 111.6483402  61.6268128  74.3604096 110.5825174
  62.0928580  75.1932087 110.5085477  62.0775628  73.8949077 111.2870433
  51.5689963  82.3629967 119.2963419  52.2699422  82.9966450 119.4492814
  51.0985078  82.7044699 118.5359059  59.6944359  80.7047917 107.5811326
  59.9704203  80.5904512 108.4905201  58.8248857  80.3065402 107.5423500
  59.5984790  66.7284683 114.6216076  58.6847870  66.9588910 114.7898283
  60.0277892  66.8123127 115.4730108  59.3691249  74.9174575 117.1215970
  58.7162699  75.1650482 116.4668423  59.7471629  74.1038713 116.7878447
  56.3298423  84.9534268 111.2244140  56.5120817  84.1355924 111.6871892
  57.1531409  85.1701960 110.7869030  56.6640588  83.8802453 108.4859189
  57.1928355  83.3694908 107.8729351  56.9268808  83.5644983 109.3504722
  55.4178822  75.6594386 123.6082007  54.7419459  75.5588515 124.2784382
  56.2406456  75.5033599 124.0718004  47.1657681  81.8966322 116.2294522
  47.7511118  81.1510010 116.3622426  46.9682519  82.2070279 117.1131186
  50.0196336  84.9317570 111.2456965  49.3506711  85.4163697 110.7621005
  49.8809206  85.1786790 112.1600343  41.7575336  74.4671923 114.9498965
  41.7959435  73.9335513 115.7436083  41.2515628  73.9407128 114.3309942
  54.1601605  86.9661313 117.8439623  54.7119913  87.1292935 118.6088708
  54.5007798  87.5565751 117.1719648  49.1366098  69.3136463 118.4461508
  49.2007424  70.1751294 118.0338905  49.0733218  68.7010465 117.7133866
  48.6118370  71.3859596 122.0934542  49.2390409  71.0036673 122.7072066
  47.7546289  71.1673797 122.4590234  45.3883913  73.1936025 108.0252897
  45.6837354  72.2846703 107.9719950  44.4871949  73.1723764 107.7033899
  57.2969992  84.9143289 114.8303305  57.1721131  84.1133029 114.3214251
  57.9549083  85.4089482 114.3417275  48.9178160  71.2692021 114.0080445
  48.1964746  71.8827989 113.8687919  49.7071416  71.8049786 113.9297091
  59.3604900  82.7152309 116.4582855  58.4135236  82.5957660 116.3861182
  59.7087673  81.8274807 116.5409117  51.7204474  68.6046448 120.2821097
  52.2438876  68.8508744 121.0447406  51.5016807  69.4366483 119.8624234
  47.1171755  70.8750122 108.1492222  46.7884461  69.9947501 107.9667328
  47.4711125  70.8197791 109.0368611  56.3651334  82.5105025 112.6587207
  56.2176296  81.5821732 112.8394777  57.1904827  82.5325116 112.1744283
  50.2313578  71.1623092 108.5167700  50.5709650  71.6909013 107.7946308
  50.6785698  71.5003498 109.2926266  59.9685455  83.3333584 113.7452080
  60.8932003  83.1276445 113.6076531  59.8000759  83.0849985 114.6541422
  52.9257019  69.5460143 117.9670768  52.5853839  68.7467956 118.3691447
  52.2196025  69.8461854 117.3947601  53.5773491  66.6309455 116.4198091
  54.3999560  66.1569933 116.2976981  53.8211554  67.4099939 116.9196777
  52.2181725  69.6597714 106.7160992  52.9390088  70.0378966 106.2124709
  51.5947029  70.3786591 106.8195970  56.3612848  70.3642863 107.6519325
  56.5776462  71.2467501 107.3508153  55.8806915  69.9729076 106.9224967
  51.1012069  73.3228576 114.2290069  50.9556650  73.6368879 115.1214351
  50.6237273  73.9413476 113.6760968  52.9608452  70.3131124 114.2770959
  52.9470021  69.4172217 113.9403257  53.6780880  70.3201788 114.9109245
  54.8134583  70.7468464 116.3224086  54.5552361  71.6685535 116.3208417
  54.2819623  70.3498899 117.0124550  59.7580772  83.8519251 109.1014172
  59.9317649  83.2865674 108.3488024  60.2509663  84.6520146 108.9193662
  45.5757732  75.8633920 117.1677730  45.0311200  76.6393728 117.2998005
  46.4537081  76.2104725 117.0096852  52.3645348  69.1945504 109.5458529
  52.4861259  68.2662150 109.7449416  52.0747391  69.2084190 108.6336844
  55.2336539  66.8800415 112.6825249  55.2558235  66.9439748 111.7277228
  55.6504598  66.0404923 112.8765755  65.6120163  76.6155674 110.7204471
  66.0551309  75.8662999 110.3223595  64.7346673  76.6065811 110.3378203
  60.7455944  83.1686016 106.2011070  61.4406849  83.7892708 106.4198385
  61.0879094  82.3181367 106.4763448  46.3623753  74.9903817 120.0607887
  45.6205489  75.1386452 120.6472518  46.0416498  75.2512082 119.1974637
  62.6447367  80.6185721 107.7298401  63.1698691  80.9572994 107.0047721
  62.5569720  79.6832736 107.5461535  54.3067416  84.5319795 119.8588277
  54.6154542  84.2868942 120.7310977  55.1042898  84.7366433 119.3707147
  54.3288028  86.6857704 112.0893654  53.8893018  86.1934083 112.7826511
  55.0796145  86.1430672 111.8485729  46.8080367  82.8769245 112.0918282
  47.6338387  82.5773017 111.7116925  46.4574419  82.1076868 112.5408071
  51.7761900  82.2295714 114.1615955  51.1541910  81.5666419 113.8618183
  52.4466767  82.2556845 113.4789603  45.0088972  80.7955572 113.0507215
  44.1720880  80.3677746 112.8691217  44.9812618  80.9888015 113.9878007
  51.8486428  70.7077502 123.7548462  51.8974583  71.5839624 123.3726231
  52.3908942  70.1654895 123.1820105  62.4539148  78.1011091 120.3482327
  62.5037153  77.9361099 121.2897850  62.3453072  77.2338350 119.9580208
  51.3375407  80.7799637 107.6374416  51.4863528  81.4635101 106.9841089
  52.1441851  80.7604727 108.1523872  59.7442911  74.0842019 121.6641634
  60.6452774  73.9448484 121.3725632  59.8190885  74.2496474 122.6039811
  54.0785716  71.4608874 120.5094820  53.2089026  71.7542440 120.2377409
  54.3145197  72.0449319 121.2302084  65.1553028  78.0860912 113.1126919
  65.9899919  78.5250717 113.2764479  65.2912156  77.6099566 112.2935165
  62.2044534  75.6440647 119.0604407  62.6798655  75.8368294 118.2523258
  61.2810099  75.6999833 118.8147790  49.0928040  76.8064814 108.6435485
  48.8474082  75.9027144 108.8415695  49.2623955  76.8081965 107.7014963
  56.7824750  67.6788491 118.0260241  57.3006694  68.4149518 117.7006729
  56.4279883  67.9852484 118.8607000  48.3623688  72.5393172 106.1421646
  47.6692933  72.6137527 105.4861682  48.1175440  71.7753516 106.6643163
  57.0337344  64.0988773 113.5461137  57.3139098  63.4311962 114.1721564
  57.8187951  64.2917869 113.0335801  54.8370813  83.2747767 105.1086163
  54.2644780  83.8937954 104.6556635  55.4103606  83.8247129 105.6426085
  60.9046203  72.5206407 117.2932712  61.8563625  72.6204505 117.3144936
  60.7349653  71.7284676 117.8030797  58.9260582  69.6061991 117.4792113
  58.3310514  69.8867003 116.7838602  58.6410279  70.0955892 118.2508854
  58.0568072  83.5584917 106.2394746  58.9898746  83.4930479 106.4427621
  57.9691285  84.3941184 105.7809278  60.6856089  82.8750788 103.1998693
  60.6069721  82.5410651 104.0934451  61.5065756  83.3672556 103.1990166
  63.3834280  75.7412527 116.4075012  63.3510600  74.8028528 116.5934696
  63.9934904  75.8196564 115.6740837  55.2217611  74.6108580 102.4502216
  56.1676716  74.4814788 102.5190634  54.8431856  73.8723242 102.9271644
  63.5328769  72.5323571 116.4533295  63.0167817  71.7482027 116.2663224
  64.4168717  72.2042287 116.6179815  61.1939496  66.2764586 112.4129108
  60.9964317  65.9679674 113.2972440  61.8039201  67.0026225 112.5427038
  69.2010830  76.8028534 115.5481049  69.9314219  76.5413822 116.1088752
  68.5917776  76.0657256 115.5883117  67.2826127  74.9436397 116.1455500
  66.5559291  74.8092361 115.5371991  66.8673414  75.2513225 116.9512218
  55.1056304  78.6626326 123.9102873  56.0259313  78.8404925 124.1042919
  55.0705887  77.7182372 123.7582572  53.4060528  72.5358556 102.3857101
  52.4991984  72.2391669 102.4619815  53.6836509  72.2388375 101.5191387
  44.3238469  73.8564920 112.8356148  44.0041253  73.0030228 112.5430522
  43.7771897  74.0713498 113.5914115  48.1018376  76.5727361 116.5525654
  48.3204386  77.5044469 116.5713688  48.5144150  76.2135335 117.3380458
  55.0222594  67.0795446 108.5401342  54.2123322  66.7342531 108.9156589
  55.7107011  66.7702990 109.1288954  56.9513142  66.1573493 110.1625639
  57.5044181  66.5768946 110.8215662  57.1883229  65.2309241 110.2048595
  52.9746242  72.1460567 125.9428403  52.8742968  73.0954924 125.8740494
  52.7567784  71.8178806 125.0704473  52.1759313  69.3945492 102.5269080
  53.0378477  69.7200390 102.7864898  52.3609657  68.6076988 102.0142146
  44.1926729  77.4767831 114.8049269  43.4990200  77.0621784 114.2919224
  44.9399720  77.5188368 114.2082688  60.3291949  68.2674018 109.6704303
  59.7490618  68.9258822 109.2882356  60.0627882  67.4451363 109.2591721
  58.7795516  67.6679076 111.8725624  59.2795294  67.7795610 111.0639943
  59.4231124  67.3640129 112.5126432  52.8377512  75.5757705 124.7593465
  52.3544593  76.3758066 124.9657354  52.9238451  75.5865650 123.8060909
  46.1063471  77.4086085 112.6815284  46.0834159  77.5073772 111.7297167
  46.4164108  78.2551236 113.0032450  48.7650849  79.4662240 116.7961898
  49.7194103  79.4346182 116.7291830  48.5663373  79.0052864 117.6112124
  49.3550231  78.0363356 119.3632696  50.1743120  78.5307435 119.3867533
  49.6287039  77.1195324 119.3350264  59.1116827  70.4274109 108.7260652
  58.2242682  70.7123759 108.5080846  59.5270817  70.2667872 107.8787929
  62.4631364  70.4520629 112.4414991  63.2391754  70.9417082 112.7139608
  61.7379498  70.8778684 112.8986860  64.9003922  71.1648249 113.4988932
  65.4948413  70.9243985 112.7882240  64.9730506  70.4455379 114.1262468
  47.1201078  85.0081860 113.8132096  46.9855546  84.2482261 113.2470094
  46.7033140  85.7322760 113.3460885  58.2560041  80.1918783 102.8208672
  58.9595891  80.3968786 103.4366327  57.5322690  80.7595545 103.0857755
  59.0857851  75.9428644 108.9410942  59.0293053  76.3997196 108.1018574
  59.6386194  75.1819329 108.7633785  62.8962657  71.7318376 109.7661061
  62.6399591  71.3315012 110.5969269  62.2715525  72.4462170 109.6411200
  67.2074995  74.4714450 112.2732353  66.6474553  74.5407639 113.0463915
  66.6018498  74.2955434 111.5531849  50.2770204  85.9051177 114.0250539
  50.1602588  86.8496609 113.9229229  49.4562650  85.6024738 114.4136338
  60.1646738  80.6301312 104.8707132  60.9992342  80.1982511 104.6884606
  60.0031081  80.4583326 105.7984026  59.8192630  77.1333426 106.2363471
  59.7641434  76.9677697 105.2951915  59.1938686  77.8409459 106.3925661
  44.6085145  72.3701490 120.0624893  45.2544009  71.8600444 120.5512118
  44.4002297  73.1070172 120.6368318  53.1288756  66.6341535 105.8148789
  53.1167426  67.5783375 105.9717060  54.0212178  66.4511680 105.5208251
  51.3024718  86.5579439 117.2406467  52.2051965  86.5903049 117.5572962
  51.0762088  85.6279890 117.2552803  53.0578320  85.3110425 113.9016546
  52.1073951  85.3112287 113.7880918  53.3610806  84.5643160 113.3852581
  56.9440875  63.2284311 110.0694726  56.1773271  62.6742798 110.2151409
  57.3551580  63.3006180 110.9308878  48.9482636  69.5169107 124.1599907
  49.8114098  69.1605912 124.3703232  48.3748047  69.1783002 124.8475312
  61.4607535  92.9533868 110.8920724  60.8972401  92.8623805 110.1237012
  61.3459930  92.1333772 111.3723217  59.0071967  94.4485060 113.7304945
  59.7993259  94.1075884 113.3151244  59.2468617  94.5580035 114.6507098
  67.0407094  96.6204836 106.2035189  66.3895074  97.2058916 105.8169203
  67.8351457  97.1511031 106.2630226  60.9662721  93.7093973 106.6022323
  61.7393597  93.1622960 106.4635199  61.3188120  94.5738222 106.8136785
  63.3028999  89.8686639 104.2340773  63.5554520  89.3468160 103.4724236
  62.3653558  89.7052784 104.3367457  68.3472282  88.8722417 112.0415516
  69.1335371  88.4541841 111.6905933  68.6110986  89.7768510 112.2097165
  68.5182359  94.3095268 106.7404173  67.8828192  94.3829894 107.4525078
  68.1879766  94.8988866 106.0623253  63.0225288  91.7714745 106.4365148
  62.9061546  91.0959648 107.1046232  63.1327548  91.2847119 105.6197301
  65.3656829  91.2324892 110.1411837  65.0015036  90.7055513 110.8524759
  66.2223945  90.8423361 109.9678323  65.0062316  86.2614792 105.1373186
  65.1736718  87.1295028 105.5043657  64.8159485  86.4242073 104.2134475
  61.2150130  91.1745567 112.8375721  60.2900627  91.0421782 113.0453412
  61.4634544  91.9539787 113.3345663  64.9851537  88.7172449 106.1219853
  64.8651162  89.1629500 106.9605333  64.2904125  89.0657767 105.5633391
  58.5758941  90.8178841 113.6719510  58.7051323  91.0713320 114.5858922
  57.8956393  91.4106549 113.3524165  70.6836603  89.1893922 106.9500187
  71.5954459  89.4221309 106.7747884  70.1746250  89.7730967 106.3875265
  68.0272578  85.3651958 115.1990048  67.1657057  85.6633212 115.4906785
  68.0535012  85.5822357 114.2671080  64.8434147  93.9094149 111.6063853
  65.3072492  94.1881852 110.8168476  64.5790945  93.0077594 111.4236944
  63.7803033  90.0317301 108.4153419  64.4827076  90.4838345 108.8827345
  63.4483661  89.3901120 109.0433312  57.5228367  88.2900854 113.7170552
  56.7327421  88.5458383 113.2410663  58.0139614  89.1049192 113.8222593
  59.4743112  88.6545433 110.6754029  58.6774276  88.7664127 111.1937524
  59.2468705  88.9932085 109.8094919  55.8066070  88.5431344 116.1485543
  56.0574108  89.4278354 116.4143119  56.3425618  88.3635946 115.3760635
  65.0196798  96.8458244 108.4915524  64.8842472  97.6909780 108.9200372
  65.5606610  97.0477522 107.7281458  58.4726195  94.3633682 109.0643449
  58.9850716  95.1576932 109.2149013  59.1248908  93.6659972 108.9977050
  60.2821080  97.4799438 111.1466202  60.4587708  98.4017403 110.9587186
  61.0777913  97.1657857 111.5760582  68.3689261  80.3688806 117.0214417
  68.0253531  81.2590448 116.9453528  68.7368224  80.1790463 116.1584002
  56.4375112  92.6922336 109.8403019  57.2750334  93.1019345 109.6236727
  56.6153379  91.7521778 109.8103213  68.3339544  90.3597417 105.5286852
  67.8186167  91.1302022 105.7675240  68.0616852  89.6862553 106.1519914
  65.9186655  85.2047118 110.5872091  65.0628251  84.8153968 110.4077729
  66.3313607  85.2839079 109.7271876  67.4485802  82.7393461 114.9863650
  66.9450597  82.7023596 114.1731456  67.7416408  83.6486204 115.0460307
  63.6928687  82.8232191 113.9929832  64.5581684  82.6274999 113.6335722
  63.7606196  82.5942542 114.9199189  73.3073818  93.1129772 107.4640026
  72.5303261  92.7740931 107.0195188  73.9865299  93.1182395 106.7894991
  68.1225847  88.2324509 107.3546633  67.8175983  88.5470658 108.2056777
  69.0756289  88.3105929 107.3973966  66.5672279  94.3914732 109.0039587
  66.0393640  93.6567492 108.6912825  66.0659782  95.1689409 108.7579556
  61.2991007  85.0534399 111.3646199  61.8734758  84.8309580 110.6319392
  61.8861989  85.1223093 112.1174800  61.6260594  87.0838860 105.3842084
  60.7897906  87.4213546 105.7051359  61.4865363  86.9487839 104.4469221
  63.6013674  81.9275648 110.0921268  62.9478087  81.6124665 109.4677883
  63.5594148  81.3051388 110.8181091  64.7124879  92.2094943 102.0074560
  63.8051941  91.9784196 102.2065709  65.2095911  91.4132562 102.1948542
  67.6192958 100.9192450 104.9271247  66.9454657 101.2224147 105.5356204
  68.0058780 101.7221530 104.5776704  66.8351415  88.4157581 114.4168916
  65.9173976  88.6372528 114.2590604  67.2511558  88.4903892 113.5580623
  67.6186462  89.8148997 109.5471596  68.3658281  90.3270394 109.2378718
  67.8878052  89.4933049 110.4075990  65.8913113  92.3107537 106.5298551
  64.9824332  92.0266570 106.6271020  65.9208196  92.7306616 105.6701857
  70.0665300  86.8506113 111.5290386  69.3288056  86.3383499 111.8600628
  70.3192073  86.4106495 110.7173662  70.1676927  79.6282365 112.1232155
  70.4735804  78.7679728 111.8358070  70.8929532  80.2199985 111.9231149
  56.4601283  90.0313052 110.5113753  56.2625683  89.4382412 109.7864819
  55.9047947  89.7265262 111.2289692  64.4398007  89.9236158 112.6308346
  64.4946616  88.9709994 112.5550823  63.6289209  90.0795597 113.1149644
  65.5889200  93.8516281 103.8686629  65.1508630  93.1352140 103.4092267
  66.3299641  94.0792396 103.3071721  62.3790366  88.5413218 110.3898725
  61.5658232  88.8407388 110.7963917  62.8749361  88.1468907 111.1073207
  61.8704441  86.1131573 116.0059960  62.5103821  85.9720332 115.3082923
  61.0381972  85.8266087 115.6298562  62.6464745  95.4134004 112.1194952
  63.4405344  94.9184324 111.9177527  61.9356438  94.8851867 111.7562658
  58.9547509  89.5577086 108.1954705  58.0245097  89.4961541 108.4124667
  59.0504981  89.0353038 107.3991346  58.8733058  86.0831898 110.7832947
  59.1339875  86.9977232 110.6742107  59.6950230  85.6156341 110.9329559
  60.3457983  87.4969656 117.9531771  61.0181036  87.2887018 117.3044420
  59.5187770  87.2991742 117.5137003  65.8184173 101.0872122 107.1418326
  65.9935929 100.6160165 107.9563949  65.1316961 101.7137888 107.3699587
  69.7100428  92.7100663 103.4618687  69.0929599  91.9847491 103.3651739
  69.2416916  93.4710023 103.1185761  61.4998974  86.9286087 102.5839991
  60.6228440  86.8074888 102.2202238  61.9756727  86.1372165 102.3318880
  53.0201114  91.7163247 112.6781498  53.7072154  91.4024977 112.0902513
  52.8649243  92.6204611 112.4048750  57.8235836  86.6053443 117.1066522
  57.7394025  85.9979113 116.3716932  57.0018543  87.0962462 117.1076018
  67.9959550  85.0907007 112.4736717  68.4928250  84.3376969 112.1537787
  67.2246532  85.1271324 111.9079926  69.0789331  93.8478694 110.0475140
  68.1445609  93.9680157 109.8779845  69.2565999  92.9451161 109.7835150
  64.5794519  87.2324390 112.2008402  64.2092306  86.6795430 112.8889307
  65.0753611  86.6282523 111.6483402  72.4661882  89.6896013 110.5825174
  72.9322334  90.5224005 110.5085477  72.9169383  89.2240995 111.2870433
  70.5338113  96.0339835 107.5811326  70.8097957  95.9196429 108.4905201
  69.6642612  95.6357320 107.5423500  70.4378545  82.0576600 114.6216076
  69.5241625  82.2880827 114.7898283  70.8671646  82.1415044 115.4730108
  52.5969090  89.7963840 114.9498965  52.6353190  89.2627431 115.7436083
  52.0909383  89.2699046 114.3309942  59.9759852  84.6428381 118.4461508
  60.0401179  85.5043212 118.0338905  59.9126973  84.0302382 117.7133866
  56.2277668  88.5227942 108.0252897  56.5231109  87.6138621 107.9719950
  55.3265703  88.5015682 107.7033899  59.7571915  86.5983939 114.0080445
  59.0358500  87.2119907 113.8687919  60.5465170  87.1341704 113.9297091
  57.9565509  86.2042040 108.1492222  57.6278215  85.3239419 107.9667328
  58.3104880  86.1489709 109.0368611  61.0707332  86.4915010 108.5167700
  61.4103405  87.0200931 107.7946308  61.5179453  86.8295416 109.2926266
  63.7650773  84.8752061 117.9670768  63.4247594  84.0759874 118.3691447
  63.0589780  85.1753771 117.3947601  64.4167245  81.9601373 116.4198091
  65.2393314  81.4861851 116.2976981  64.6605309  82.7391857 116.9196777
  63.0575480  84.9889631 106.7160992  63.7783842  85.3670884 106.2124709
  62.4340784  85.7078508 106.8195970  67.2006602  85.6934780 107.6519325
  67.4170217  86.5759418 107.3508153  66.7200670  85.3020994 106.9224967
  61.9405824  88.6520494 114.2290069  61.7950405  88.9660797 115.1214351
  61.4631027  89.2705394 113.6760968  63.8002207  85.6423042 114.2770959
  63.7863775  84.7464135 113.9403257  64.5174635  85.6493705 114.9109245
  65.6528337  86.0760382 116.3224086  65.3946115  86.9977452 116.3208417
  65.1213378  85.6790816 117.0124550  56.4151486  91.1925838 117.1677730
  55.8704954  91.9685646 117.2998005  57.2930836  91.5396642 117.0096852
  63.2039103  84.5237422 109.5458529  63.3255014  83.5954068 109.7449416
  62.9141145  84.5376108 108.6336844  66.0730293  82.2092332 112.6825249
  66.0951990  82.2731665 111.7277228  66.4898352  81.3696841 112.8765755
  71.5849699  98.4977933 106.2011070  72.2800603  99.1184626 106.4198385
  71.9272849  97.6473285 106.4763448  73.4841122  95.9477639 107.7298401
  74.0092446  96.2864912 107.0047721  73.3963474  95.0124654 107.5461535
  57.6474122  98.2061163 112.0918282  58.4732141  97.9064935 111.7116925
  57.2968174  97.4368785 112.5408071  55.8482727  96.1247489 113.0507215
  55.0114635  95.6969664 112.8691217  55.8206372  96.3179933 113.9878007
  62.1769162  96.1091555 107.6374416  62.3257282  96.7927019 106.9841089
  62.9835605  96.0896645 108.1523872  59.9321795  92.1356732 108.6435485
  59.6867837  91.2319062 108.8415695  60.1017709  92.1373883 107.7014963
  59.2017442  87.8685090 106.1421646  58.5086687  87.9429445 105.4861682
  58.9569194  87.1045433 106.6643163  67.8731099  79.4280691 113.5461137
  68.1532852  78.7603880 114.1721564  68.6581706  79.6209787 113.0335801
  65.6764567  98.6039685 105.1086163  65.1038534  99.2229872 104.6556635
  66.2497361  99.1539047 105.6426085  68.8961827  98.8876835 106.2394746
  69.8292500  98.8222397 106.4427621  68.8085040  99.7233102 105.7809278
  71.5249844  98.2042705 103.1998693  71.4463475  97.8702569 104.0934451
  72.3459510  98.6964473 103.1990166  66.0611366  89.9400498 102.4502216
  67.0070470  89.8106706 102.5190634  65.6825611  89.2015160 102.9271644
  72.0333250  81.6056504 112.4129108  71.8358071  81.2971592 113.2972440
  72.6432956  82.3318143 112.5427038  64.2454283  87.8650474 102.3857101
  63.3385738  87.5683587 102.4619815  64.5230264  87.5680292 101.5191387
  55.1632223  89.1856838 112.8356148  54.8435008  88.3322146 112.5430522
  54.6165651  89.4005416 113.5914115  65.8616349  82.4087364 108.5401342
  65.0517077  82.0634449 108.9156589  66.5500765  82.0994908 109.1288954
  67.7906897  81.4865411 110.1625639  68.3437935  81.9060864 110.8215662
  68.0276983  80.5601159 110.2048595  63.0153067  84.7237409 102.5269080
  63.8772231  85.0492308 102.7864898  63.2003412  83.9368905 102.0142146
  55.0320483  92.8059749 114.8049269  54.3383955  92.3913702 114.2919224
  55.7793474  92.8480286 114.2082688  71.1685704  83.5965936 109.6704303
  70.5884373  84.2550740 109.2882356  70.9021637  82.7743280 109.2591721
  69.6189270  82.9970994 111.8725624  70.1189049  83.1087528 111.0639943
  70.2624878  82.6932046 112.5126432  56.9457226  92.7378003 112.6815284
  56.9227914  92.8365690 111.7297167  57.2557862  93.5843154 113.0032450
  69.9510582  85.7566026 108.7260652  69.0636437  86.0415677 108.5080846
  70.3664571  85.5959790 107.8787929  73.3025118  85.7812547 112.4414991
  74.0785508  86.2709000 112.7139608  72.5773252  86.2070601 112.8986860
  69.0953795  95.5210701 102.8208672  69.7989646  95.7260703 103.4366327
  68.3716444  96.0887463 103.0857755  69.9251606  91.2720562 108.9410942
  69.8686807  91.7289114 108.1018574  70.4779948  90.5111247 108.7633785
  73.7356412  87.0610294 109.7661061  73.4793346  86.6606930 110.5969269
  73.1109280  87.7754088 109.6411200  71.0040493  95.9593230 104.8707132
  71.8386097  95.5274429 104.6884606  70.8424836  95.7875244 105.7984026
  70.6586385  92.4625343 106.2363471  70.6035189  92.2969615 105.2951915
  70.0332440  93.1701376 106.3925661  63.9682510  81.9633452 105.8148789
  63.9561180  82.9075292 105.9717060  64.8605932  81.7803598 105.5208251
  67.7834630  78.5576229 110.0694726  67.0167026  78.0034716 110.2151409
  68.1945335  78.6298098 110.9308878  72.3392728 102.2578005 102.5839991
  71.4622195 102.1366806 102.2202238  72.8150481 101.4664083 102.3318880
  75.0848037 103.1942392 102.3857101  74.1779493 102.8975505 102.4619815
  75.3624018 102.8972210 101.5191387  73.8546822 100.0529327 102.5269080
  74.7165986 100.3784225 102.7864898  74.0397166  99.2660823 102.0142146
  74.8076265  97.2925370 105.8148789  74.7954935  98.2367210 105.9717060
  75.6999687  97.1095515 105.5208251  24.2617941  16.6086902  91.6516553
  23.5879640  16.9118598  92.2601511  24.6483763  17.4115982  91.3022010
  28.2274682  14.1872385  92.9256377  28.9225587  14.8079078  93.1443691
  28.5697832  13.3367736  93.2008754  25.5386810  14.5771287  92.9640052
  26.4717483  14.5116849  93.1672928  25.4510023  15.4127554  92.5054585
  28.1674827  13.8937157  89.9244000  28.0888458  13.5597021  90.8179758
  28.9884494  14.3858925  89.9235472  25.7378779  11.2105153  89.5453978
  26.4414629  11.4155155  90.1611634  25.0141427  11.7781915  89.8103062
  36.2749751  22.1657333 101.6907615  36.9128161  22.0464080 100.9870955
  36.1570594  23.1138177 101.7495567  28.9426273  23.9720238  97.6166031
  28.3791138  23.8810175  96.8482318  28.8278668  23.1520142  98.0968523
  34.5225832  27.6391205  92.9280496  33.8713812  28.2245286  92.5414509
  35.3170195  28.1697400  92.9875533  28.4481459  24.7280342  93.3267630
  29.2212335  24.1809330  93.1880506  28.8006858  25.5924592  93.5382091
  30.7847737  20.8873009  90.9586080  31.0373258  20.3654530  90.1969543
  29.8472296  20.7239154  91.0612763  35.8291020  19.8908787  98.7660823
  36.6154109  19.4728210  98.4151240  36.0929724  20.7954879  98.9342471
  36.0001097  25.3281637  93.4649480  35.3646930  25.4016264  94.1770385
  35.6698503  25.9175236  92.7868559  41.2299447  19.8284020  99.6693802
  41.9624619  19.2583237  99.9031631  40.4738802  19.4405621 100.1100307
  30.5044026  22.7901115  93.1610455  30.3880284  22.1146018  93.8291539
  30.6146285  22.3033488  92.3442608  32.8475567  22.2511262  96.8657144
  32.4833774  21.7241883  97.5770066  33.7042682  21.8609731  96.6923629
  32.4881053  17.2801161  91.8618493  32.6555456  18.1481398  92.2288964
  32.2978223  17.4428443  90.9379782  32.4670274  19.7358819  92.8465159
  32.3469900  20.1815870  93.6850640  31.7722863  20.0844136  92.2878698
  30.2277166  32.5062461  96.4955291  30.1501196  33.4570286  96.5743771
  29.6238810  32.1608333  97.1530217  38.1655341  20.2080292  93.6745493
  39.0773197  20.4407679  93.4993191  37.6564988  20.7917336  93.1120572
  36.7724923  25.1906110 101.0659075  36.1433785  25.3551825 100.3635143
  36.3850585  25.6047720 101.8370039  40.6514155  26.1260548  98.4203439
  39.9665193  26.5059450  97.8700472  40.7358004  26.7355875  99.1535386
  32.3252885  24.9280519  98.3309160  32.7891230  25.2068222  97.5413782
  32.0609683  24.0263963  98.1482251  31.2621771  21.0503671  95.1398725
  31.9645814  21.5024715  95.6072652  30.9302399  20.4087490  95.7678618
  39.0210914  26.6492463 103.1921140  39.8428358  26.2472650 102.9103821
  39.0173317  26.5460697 104.1437255  47.1116907  22.9931211  99.5406111
  46.3580616  22.4238609  99.3850115  47.2464449  22.9593876 100.4876746
  32.5015535  27.8644614  95.2160830  32.3661210  28.7096149  95.6445678
  33.0425348  28.0663891  94.4526764  25.9544933  25.3820052  95.7888755
  26.4669453  26.1763302  95.9394320  26.6067646  24.6846342  95.7222357
  27.7639817  28.4985808  97.8711509  27.9406446  29.4203773  97.6832493
  28.5596651  28.1844227  98.3005888  23.9193850  23.7108706  96.5648326
  24.7569072  24.1205714  96.3482034  24.0972117  22.7708148  96.5348520
  35.8158282  21.3783786  92.2532159  35.3004905  22.1488391  92.4920546
  35.5435590  20.7048923  92.8765220  40.7892556  24.1316141  94.1885332
  40.0121999  23.7927301  93.7440494  41.4684037  24.1368764  93.5140297
  35.6044585  19.2510879  94.0791940  35.2994720  19.5657028  94.9302083
  36.5575027  19.3292298  94.1219273  34.0491017  25.4101102  95.7284894
  33.5212378  24.6753861  95.4158132  33.5478519  26.1875778  95.4824862
  39.0283863  23.6050122 100.8451940  38.3707537  24.2949384 100.9332069
  39.8324262  23.9946554 101.1885927  37.8389322  21.9594495  98.8955882
  38.3521203  22.5924487  99.3977592  38.4890545  21.3595691  98.5299242
  29.1079331  18.1025229  92.1087391  28.2716644  18.4399916  92.4296666
  28.9684101  17.9674209  91.1714528  32.1943617  23.2281312  88.7319867
  31.2870679  22.9970566  88.9311016  32.6914649  22.4318931  88.9193849
  35.1011696  31.9378819  91.6516553  34.4273395  32.2410516  92.2601511
  35.4877518  32.7407900  91.3022010  35.1005200  20.8335366  96.2716903
  35.8477019  21.3456764  95.9624025  35.3696790  20.5119419  97.1321296
  33.3731850  23.3293907  93.2543857  32.4643070  23.0452940  93.3516327
  33.4026934  23.7492986  92.3947164  38.6051118  26.9400497  97.0235025
  38.1513445  26.0991406  97.0800215  37.9745084  27.5761895  97.3609805
  37.5484037  17.8692483  98.2535692  36.8106794  17.3569869  98.5845935
  37.8010811  17.4292864  97.4418969  37.0484057  28.7776993  97.9584843
  37.3407031  29.3382050  97.2397209  37.5582678  29.0705554  98.7138002
  33.0707938  24.8702651  90.5931936  32.6327368  24.1538510  90.1337573
  33.8118379  25.0978766  90.0317027  29.8609104  19.5599587  97.1144031
  29.0476970  19.8593758  97.5209224  30.3568098  19.1655276  97.8318514
  32.0117682  29.5557344  99.0478296  31.9693861  29.7818191  98.1186828
  32.9280381  29.3220719  99.1964097  41.1881053  23.1459848  96.6508254
  41.0498951  23.3361444  95.7229444  40.8317272  23.9079231  97.1076306
  41.2150433  25.2136375 101.6619526  41.6486939  25.1211664 102.5102580
  41.9282013  25.1893875 101.0239542  30.1283483  26.4320373  98.8440259
  30.9224081  25.9370693  98.6422834  29.4175175  25.9038236  98.4807964
  34.9478327  28.8138469 103.1952626  35.0015350  29.3829405 103.9630342
  34.0793109  28.9840354 102.8306664  26.4366246  20.5763455  94.9200012
  25.5063835  20.5147911  95.1369974  26.5323718  20.0539408  94.1236653
  42.0765982  25.2560075 104.1952411  42.2701872  26.1605886 104.4411686
  41.9766600  24.7967494 105.0290996  33.3002911  32.1058492  93.8663632
  33.4754667  31.6346535  94.6809255  32.6135699  32.7324258  94.0944893
  34.2559974  26.3830998  99.9126934  33.9209807  26.3431768 100.8084584
  33.7563920  25.7175714  99.4397344  37.1919166  23.7287032  90.1863993
  36.5748336  23.0033861  90.0897046  36.7235654  24.4896393  89.8431068
  27.8663996  35.2547855 100.6403493  28.1060594  35.8866379 101.3182511
  27.0233193  34.9035895 100.9268852  28.9817712  17.9472457  89.3085298
  28.1047178  17.8261257  88.9447544  29.4575465  17.1558535  89.0564186
  32.3791858  31.0626977 103.0444997  32.3062030  31.8681948 103.5564301
  31.9369251  31.2618943 102.2193018  32.1681638  30.2998747  96.5547818
  31.3849160  30.8420427  96.6486043  32.8674383  30.8172727  96.9542059
  43.3308045  21.8133742 100.8400315  43.3197921  22.6958457 100.4694248
  42.4625425  21.4605293 100.6454852  34.8390542  30.9613811 105.2003155
  35.5518514  31.5961276 105.1279057  34.3480570  31.0577677 104.3843157
  36.5608068  24.8665064  96.7720447  35.6264347  24.9866526  96.6025151
  36.7384737  23.9637530  96.5080457  39.9480620  20.7082383  97.3070481
  40.4141072  21.5410375  97.2330784  40.3988120  20.2427365  98.0115740
  38.0156851  27.0526204  94.3056633  38.2916695  26.9382799  95.2150507
  37.1461350  26.6543689  94.2668806  34.6510915  31.3012555  97.9489447
  34.8333309  30.4834211  98.4117199  35.4743901  31.5180247  97.5114337
  34.9853080  30.2280740  95.2104495  35.5140847  29.7173195  94.5974657
  35.2481300  29.9123270  96.0750028  28.3408828  31.2795857  97.9702271
  27.6719204  31.7641985  97.4866311  28.2021698  31.5265077  98.8845650
  32.4814097  33.3139600 104.5684930  33.0332405  33.4771222 105.3334015
  32.8220290  33.9044038 103.8964954  23.7096405  19.5414312  94.7498203
  24.0049847  18.6324990  94.6965257  22.8084441  19.5202051  94.4279206
  35.6182484  31.2621576 101.5548612  35.4933624  30.4611316 101.0459557
  36.2761575  31.7567769 101.0662582  37.6817393  29.0630596 103.1828162
  36.7347728  28.9435947 103.1106489  38.0300166  28.1753094 103.2654423
  34.6863826  28.8583312  99.3832514  34.5388788  27.9300020  99.5640084
  35.5117319  28.8803403  98.8989589  28.5526070  17.5101379  95.2413006
  28.8922143  18.0387301  94.5191615  28.9998191  17.8481785  96.0171573
  38.2897948  29.6811871 100.4697387  39.2144495  29.4754732 100.3321838
  38.1213251  29.4328272 101.3786728  30.5394217  16.0076001  93.4406299
  31.2602580  16.3857254  92.9370016  29.9159521  16.7264878  93.5441277
  34.6825340  16.7121150  94.3764631  34.8988955  17.5945788  94.0753459
  34.2019407  16.3207363  93.6470273  38.0793264  30.1997538  95.8259478
  38.2530142  29.6343961  95.0733331  38.5722155  30.9998433  95.6438968
  43.9332655  22.9633961  97.4449778  44.3763801  22.2141287  97.0468901
  43.0559165  22.9544098  97.0623510  39.0668436  29.5164303  92.9256377
  39.7619341  30.1370996  93.1443691  39.4091587  28.6659654  93.2008754
  40.9659860  26.9664008  94.4543707  41.4911184  27.3051281  93.7293027
  40.8782212  26.0311024  94.2706842  32.6500520  33.0335992  98.8138960
  32.2105511  32.5412370  99.5071817  33.4008637  32.4908959  98.5731036
  25.1292859  29.2247533  98.8163589  25.9550879  28.9251304  98.4362232
  24.7786911  28.4555155  99.2653377  30.0974393  28.5774001 100.8861262
  29.4754402  27.9144706 100.5863490  30.7679259  28.6035133 100.2034910
  29.6587899  27.1277924  94.3619723  29.8076020  27.8113388  93.7086395
  30.4654343  27.1083014  94.8769178  43.4765520  24.4339200  99.8372226
  44.3112411  24.8729004 100.0009786  43.6124649  23.9577853  99.0180471
  27.4140532  23.1543102  95.3680792  27.1686574  22.2505432  95.5661002
  27.5836447  23.1560252  94.4260270  26.6836180  18.8871459  92.8666953
  25.9905425  18.9615814  92.2106989  26.4387932  18.1231803  93.3888470
  33.1583305  29.6226055  91.8331470  32.5857272  30.2416242  91.3801942
  33.7316099  30.1725416  92.3671392  36.3780565  29.9063205  92.9640052
  37.3111238  29.8408766  93.1672928  36.2903778  30.7419472  92.5054585
  39.0068581  29.2229075  89.9244000  38.9282213  28.8888939  90.8179758
  39.8278248  29.7150843  89.9235472  41.7046773  22.0890814 103.1320319
  41.6723093  21.1506815 103.3180002  42.3147396  22.1674851 102.3986143
  33.5430103  20.9586867  89.1747523  34.4889208  20.8293075  89.2435941
  33.1644348  20.2201529  89.6516951  47.5223322  23.1506821 102.2726355
  48.2526711  22.8892109 102.8334059  46.9130268  22.4135543 102.3128423
  45.6038620  21.2914684 102.8700807  44.8771783  21.1570649 102.2617298
  45.1885906  21.5991512 103.6757525  31.7273021  18.8836844  89.1102408
  30.8204476  18.5869956  89.1865121  32.0049002  18.5866662  88.2436694
  30.4971805  15.7423779  89.2514387  31.3590969  16.0678677  89.5110204
  30.6822149  14.9555275  88.7387453  38.6504442  14.6152305  96.3949610
  38.0703111  15.2737109  96.0127662  38.3840374  13.7929650  95.9837028
  37.4329320  16.7752396  95.4505958  36.5455175  17.0602046  95.2326153
  37.8483309  16.6146159  94.6033235  40.7843856  16.7998917  99.1660298
  41.5604246  17.2895369  99.4384914  40.0591990  17.2256971  99.6232167
  43.2216414  17.5126536 100.2234238  43.8160905  17.2722272  99.5127546
  43.2942998  16.7933667 100.8507774  25.4413570  31.3560147 100.5377403
  25.3068038  30.5960548  99.9715401  25.0245632  32.0801047 100.0706192
  36.5772533  26.5397070  89.5453978  37.2808383  26.7447073  90.1611634
  35.8535182  27.1073832  89.8103062  37.4070343  22.2906932  95.6656248
  37.3505545  22.7475483  94.8263881  37.9598686  21.5297616  95.4879091
  41.2175149  18.0796664  96.4906368  40.9612084  17.6793299  97.3214576
  40.5928017  18.7940457  96.3656507  45.5287487  20.8192737  98.9977659
  44.9687045  20.8885926  99.7709221  44.9230991  20.6433721  98.2777156
  28.5982696  32.2529464 100.7495846  28.4815080  33.1974896 100.6474536
  27.7775142  31.9503025 101.1381645  38.4859231  26.9779600  91.5952438
  39.3204835  26.5460798  91.4129913  38.3243573  26.8061613  92.5229333
  38.1405123  23.4811713  92.9608778  38.0853927  23.3155984  92.0197222
  37.5151178  24.1887746  93.1170967  31.4501248  12.9819822  92.5394096
  31.4379918  13.9261662  92.6962367  32.3424670  12.7989967  92.2453557
  29.6237210  32.9057726 103.9651774  30.5264457  32.9381336 104.2818269
  29.3974580  31.9758177 103.9798110  31.3790812  31.6588712 100.6261853
  30.4286443  31.6590574 100.5126225  31.6823298  30.9121447 100.1097887
  47.1143506  37.4949251 101.6907615  47.7521916  37.3755998 100.9870955
  46.9964349  38.4430095 101.7495567  43.9233212  37.4476679 101.6269140
  43.5851723  37.3317744 100.7389675  44.7922980  37.0467844 101.6070146
  39.7820028  39.3012155  97.6166031  39.2184893  39.2102092  96.8482318
  39.6672423  38.4812060  98.0968523  44.4052995  38.6011531 107.5855345
  44.3941636  38.2064329 106.7135849  44.5673634  37.8677603 108.1789117
  37.3284460  40.7963347 100.4550251  38.1205751  40.4554171 100.0396550
  37.5681110  40.9058322 101.3752404  45.3619586  42.9683123  92.9280496
  44.7107566  43.5537203  92.5414509  46.1563949  43.4989318  92.9875533
  39.2875214  40.0572260  93.3267630  40.0606090  39.5101247  93.1880506
  39.6400612  40.9216509  93.5382091  41.1260256  41.3848642 106.5334529
  40.8350122  42.2894273 106.4181196  41.7617240  41.4265170 107.2478599
  42.0516463  38.7625491 103.1235889  42.6480035  38.5381513 102.4092852
  42.1091434  38.0210236 103.7261337  41.6241491  36.2164926  90.9586080
  41.8767012  35.6946447  90.1969543  40.6866050  36.0531072  91.0612763
  46.6684774  35.2200705  98.7660823  47.4547863  34.8020128  98.4151240
  46.9323478  36.1246797  98.9342471  46.8394852  40.6573555  93.4649480
  46.2040684  40.7308181  94.1770385  46.5092258  41.2467154  92.7868559
  52.0693201  35.1575938  99.6693802  52.8018373  34.5875155  99.9031631
  51.3132557  34.7697538 100.1100307  41.3437780  38.1193032  93.1610455
  41.2274038  37.4437936  93.8291539  41.4540040  37.6325406  92.3442608
  43.6869321  37.5803179  96.8657144  43.3227528  37.0533800  97.5770066
  44.5436437  37.1901648  96.6923629  49.5918622  28.8697512 104.1288410
  49.2601946  29.7392923 103.9049625  48.9964235  28.5533796 104.8082441
  43.3274808  32.6093079  91.8618493  43.4949210  33.4773315  92.2288964
  43.1371977  32.7720361  90.9379782  46.0850141  41.0710058 103.5284323
  45.7850864  41.9735097 103.4200130  45.7401201  40.8042241 104.3805476
  39.5362623  37.5223855  99.5621027  38.6113119  37.3900069  99.7698719
  39.7847036  38.3018074 100.0590970  49.4847285  33.5892598 101.2081760
  48.5764162  33.5208006 100.9140521  49.4334881  34.0664543 102.0363586
  43.3064029  35.0650736  92.8465159  43.1863654  35.5107787  93.6850640
  42.6116617  35.4136054  92.2878698  36.8971434  37.1657128 100.3964816
  37.0263815  37.4191607 101.3104228  36.2168885  37.7584836 100.0769472
  41.0670921  47.8354378  96.4955291  40.9894951  48.7862203  96.5743771
  40.4632565  47.4900251  97.1530217  43.5588151  35.0082244 109.1516658
  42.7821485  35.5676164 109.1419522  44.1978714  35.4939027 109.6731528
  51.3508931  31.7909036 102.9859634  50.7083312  32.0841570 102.3399429
  50.8463860  31.6761957 103.7912831  49.0049095  35.5372210  93.6745493
  49.9166951  35.7699596  93.4993191  48.4958742  36.1209254  93.1120572
  41.8134523  37.8167697 108.7134625  42.5549207  38.3552741 108.4369448
  41.1071509  38.4433986 108.8706176  47.2889863  39.9596837 107.3106786
  47.6973219  39.5179248 106.5661418  46.5667124  39.3849465 107.5640979
  43.6420933  34.8969444 104.6840343  44.4882128  35.3208858 104.8274992
  43.5819570  34.2403069 105.3778906  47.6118677  40.5198028 101.0659075
  46.9827540  40.6843742 100.3635143  47.2244339  40.9339638 101.8370039
  51.4907909  41.4552466  98.4203439  50.8058947  41.8351367  97.8700472
  51.5751759  42.0647793  99.1535386  46.7920378  32.5573813 106.3421517
  46.5481310  33.3115873 105.8055792  47.0680309  32.9359160 107.1768764
  48.7458841  39.1012425 105.0198782  48.9575736  39.7444185 104.3433163
  48.6988589  38.2674742 104.5520712  46.3485070  31.7130246 101.9235354
  45.4869549  32.0111499 102.2152092  46.3747504  31.9300645 100.9916387
  43.1646639  40.2572436  98.3309160  43.6284985  40.5360139  97.5413782
  42.9003437  39.3555881  98.1482251  40.0570720  39.8043918 101.2688923
  40.6272077  40.2331186 100.6306408  40.6478832  39.5226502 101.9673109
  42.1015525  36.3795589  95.1398725  42.8039569  36.8316632  95.6072652
  41.7696154  35.7379407  95.7678618  40.5495887  34.9707345 109.5149935
  39.9194547  35.6523626 109.7485331  40.4431975  34.8590427 108.5703073
  35.8440859  34.6379141 100.4415859  35.0539913  34.8936670  99.9655969
  36.3352107  35.4527479 100.5467899  49.8604669  41.9784380 103.1921140
  50.6822113  41.5764568 102.9103821  49.8567072  41.8752615 104.1437255
  37.7955605  35.0023720  97.3999335  36.9986768  35.1142415  97.9182831
  37.5681197  35.3410373  96.5340226  43.6261272  41.5268424 105.3481850
  43.6905705  41.9888831 106.1840022  42.9172196  40.8965789 105.4764160
  34.1278562  34.8909632 102.8730850  34.3786601  35.7756642 103.1388425
  34.6638111  34.7114233 102.1005941  57.9510662  38.3223129  99.5406111
  57.1974370  37.7530527  99.3850115  58.0858203  38.2885793 100.4876746
  43.3409290  43.1936531  95.2160830  43.2054965  44.0388067  95.6445678
  43.8819102  43.3955809  94.4526764  36.7938687  40.7111969  95.7888755
  37.3063208  41.5055219  95.9394320  37.4461400  40.0138260  95.7222357
  38.6033572  43.8277726  97.8711509  38.7800200  44.7495690  97.6832493
  39.3990405  43.5136145  98.3005888  42.7444591  30.6885990 109.4695442
  43.4854304  31.2893143 109.3899905  42.9762513  29.9463628 108.9113485
  37.8885929  35.8742357 107.7473672  37.7739444  34.9727615 108.0480771
  37.0330446  36.1206054 107.3958488  44.9677766  43.8160098 109.3461172
  44.5241620  43.0296476 109.0282077  45.6294980  44.0039248 108.6805063
  39.7264887  45.3455899 103.8721851  40.2772313  45.2172963 103.0998845
  38.8876363  45.6450788 103.5216744  47.0659004  44.0962898 107.3742574
  47.0477480  44.9171779 106.8822843  47.9878924  43.9716973 107.5992715
  43.5232058  41.6107027 108.2166082  44.0560395  40.8495315 107.9865390
  42.9946140  41.3180679 108.9590237  46.6901753  26.7167093 103.7459724
  46.3466023  27.6068735 103.6698834  47.0580716  26.5268751 102.8829309
  34.7587604  39.0400624  96.5648326  35.5962826  39.4497632  96.3482034
  34.9365872  38.1000066  96.5348520  46.6552036  36.7075704  92.2532159
  46.1398660  37.4780309  92.4920546  46.3829345  36.0340840  92.8765220
  44.2399147  31.5525405  97.3117397  43.3840744  31.1632255  97.1323036
  44.6526099  31.6317366  96.4517183  45.7698294  29.0871748 101.7108957
  45.2663089  29.0501883 100.8976762  46.0628901  29.9964491 101.7705614
  42.0141180  29.1710478 100.7175139  42.8794176  28.9753287 100.3581028
  42.0818689  28.9420830 101.6444496  51.6286310  39.4608059  94.1885332
  50.8515753  39.1219218  93.7440494  52.3077791  39.4660682  93.5140297
  46.4438339  34.5802796  94.0791940  46.1388475  34.8948945  94.9302083
  47.3968781  34.6584216  94.1219273  44.8884771  40.7393020  95.7284894
  44.3606133  40.0045779  95.4158132  44.3872274  41.5167696  95.4824862
  49.8677617  38.9342040 100.8451940  49.2101292  39.6241301 100.9332069
  50.6718016  39.3238472 101.1885927  39.6203499  31.4012686  98.0891506
  40.1947251  31.1787867  97.3564699  40.2074481  31.4701380  98.8420107
  48.6783076  37.2886413  98.8955882  49.1914958  37.9216405  99.3977592
  49.3284300  36.6887608  98.5299242  39.9473086  33.4317147  92.1087391
  39.1110398  33.7691833  92.4296666  39.8077856  33.2966127  91.1714528
  41.9226167  28.2753935  96.8166575  41.2690579  27.9602952  96.1923190
  41.8806641  27.6529675  97.5426398  43.0337371  38.5573230  88.7319867
  42.1264433  38.3262483  88.9311016  43.5308403  37.7610849  88.9193849
  45.9405450  47.2670737  91.6516553  45.2667149  47.5702434  92.2601511
  46.3271272  48.0699817  91.3022010  45.1563907  34.7635868 101.1414223
  44.2386468  34.9850815 100.9835911  45.5724050  34.8382179 100.2825930
  45.9398955  36.1627284  96.2716903  46.6870774  36.6748681  95.9624025
  46.2090544  35.8411337  97.1321296  44.2125605  38.6585825  93.2543857
  43.3036824  38.3744858  93.3516327  44.2420689  39.0784903  92.3947164
  49.4444872  42.2692414  97.0235025  48.9907199  41.4283324  97.0800215
  48.8138839  42.9053813  97.3609805  48.3877792  33.1984400  98.2535692
  47.6500549  32.6861786  98.5845935  48.6404565  32.7584782  97.4418969
  47.8877811  44.1068911  97.9584843  48.1800786  44.6673968  97.2397209
  48.3976432  44.3997472  98.7138002  48.4889419  25.9760652  98.8477462
  48.7948296  25.1158016  98.5603377  49.2142024  26.5678272  98.6476455
  34.7813775  36.3791339  97.2359059  34.5838175  35.7860700  96.5110126
  34.2260439  36.0743549  97.9534998  42.7610499  36.2714445  99.3553653
  42.8159109  35.3188282  99.2796129  41.9501701  36.4273884  99.8394951
  43.9101693  40.1994568  90.5931936  43.4721123  39.4830427  90.1337573
  44.6512133  40.4270683  90.0317027  40.7002859  34.8891505  97.1144031
  39.8870724  35.1885676  97.5209224  41.1961853  34.4947194  97.8318514
  42.8511437  44.8849262  99.0478296  42.8087615  45.1110108  98.1186828
  43.7674136  44.6512637  99.1964097  46.2977070  35.3533330 105.9458925
  46.6526458  35.5804803 106.8053391  46.9449202  35.6851706 105.3236181
  52.0274807  38.4751765  96.6508254  51.8892706  38.6653361  95.7229444
  51.6711026  39.2371148  97.1076306  40.1916934  32.4609861 102.7305266
  40.8316313  32.3198620 102.0328230  39.3594464  32.1744374 102.3543868
  52.0544187  40.5428292 101.6619526  52.4880694  40.4503582 102.5102580
  52.7675768  40.5185793 101.0239542  40.9677237  41.7612291  98.8440259
  41.7617836  41.2662611  98.6422834  40.2568930  41.2330154  98.4807964
  45.7872082  44.1430387 103.1952626  45.8409104  44.7121323 103.9630342
  44.9186863  44.3132272 102.8306664  37.2760001  35.9055373  94.9200012
  36.3457589  35.8439828  95.1369974  37.3717473  35.3831326  94.1236653
  37.1945550  32.4310186  97.5078253  37.4552367  33.3455519  97.3987414
  38.0162722  31.9634628  97.6574866  38.6670475  33.8447943 104.6777078
  39.3393529  33.6365305 104.0289727  37.8400262  33.6470029 104.2382310
  52.9159737  40.5851993 104.1952411  53.1095627  41.4897804 104.4411686
  52.8160355  40.1259412 105.0290996  44.5696047  30.4709884 106.6942739
  43.9223962  31.1699833 106.6007215  45.3397063  30.9046028 107.0618987
  47.9774845  40.7358736 109.7693292  47.8260352  40.5069288 108.8523376
  47.9679525  41.6929337 109.7824637  44.7460182  38.3090649 104.7539558
  45.6752242  38.4601808 104.5808526  44.3251212  38.3974669 103.8988205
  43.5448513  42.3341313 102.5238096  43.4059599  41.9660097 103.3964034
  42.7563110  42.8488952 102.3522054  44.1396665  47.4350409  93.8663632
  44.3148421  46.9638453  94.6809255  43.4529453  48.0616176  94.0944893
  45.0953729  41.7122916  99.9126934  44.7603561  41.6723686 100.8084584
  44.5957674  41.0467632  99.4397344  39.0697973  37.1190546 105.4379515
  38.9317770  36.3870785 106.0391054  39.9802896  37.0299446 105.1563703
  48.0312920  39.0578950  90.1863993  47.4142091  38.3325778  90.0897046
  47.5629409  39.8188310  89.8431068  41.6980273  36.8310505 104.9263195
  42.4079892  36.1903697 104.8849813  41.6549581  37.0823400 105.8489375
  49.6867052  43.7677858 107.8469774  49.6279598  43.0837079 107.1800357
  50.0886570  44.5096848 107.3950400  40.4109207  33.8175723 106.7458834
  39.8746564  33.3666461 107.3980430  39.8225916  33.9521632 106.0029298
  38.7057751  50.5839772 100.6403493  38.9454349  51.2158296 101.3182511
  37.8626947  50.2327812 100.9268852  39.8211466  33.2764374  89.3085298
  38.9440932  33.1553175  88.9447544  40.2969219  32.4850453  89.0564186
  49.6884459  41.7317442 106.0783753  48.8011238  41.3943364 106.2010152
  50.2583010  41.0000474 106.3152519  31.3413606  38.0641534  99.4026805
  32.0284646  37.7503264  98.8147820  31.1861735  38.9682899  99.1294056
  36.1448328  32.9531731 103.8311829  36.0606517  32.3457400 103.0962238
  35.3231035  33.4440749 103.8321325  43.2185613  46.3918895 103.0444997
  43.1455784  47.1973866 103.5564301  42.7763006  46.5910860 102.2193018
  43.0075392  45.6290665  96.5547818  42.2242914  46.1712345  96.6486043
  43.7068137  46.1464644  96.9542059  46.3172042  31.4385294  99.1982024
  46.8140742  30.6855256  98.8783094  45.5459024  31.4749611  98.6325233
  54.1701800  37.1425660 100.8400315  54.1591676  38.0250375 100.4694248
  53.3019179  36.7897211 100.6454852  45.6784296  46.2905729 105.2003155
  46.3912268  46.9253194 105.1279057  45.1874325  46.3869595 104.3843157
  47.4001823  40.1956981  96.7720447  46.4658102  40.3158444  96.6025151
  47.5778491  39.2929448  96.5080457  42.9007011  33.5802677  98.9253708
  42.5304799  33.0273718  99.6134614  43.3966103  32.9760811  98.3728708
  50.7874374  36.0374301  97.3070481  51.2534827  36.8702292  97.2330784
  51.2381875  35.5719282  98.0115740  40.7296210  44.0400172 106.0208726
  41.4305669  44.6736655 106.1738120  40.2591325  44.3814904 105.2604365
  48.8550605  42.3818122  94.3056633  49.1310449  42.2674717  95.2150507
  47.9855104  41.9835607  94.2668806  48.7591037  28.4054888 101.3461382
  47.8454117  28.6359114 101.5143589  49.1884139  28.4893332 102.1975415
  48.5297496  36.5944780 103.8461276  47.8768946  36.8420687 103.1913729
  48.9077875  35.7808918 103.5123754  45.4904669  46.6304473  97.9489447
  45.6727064  45.8126129  98.4117199  46.3137655  46.8472165  97.5114337
  45.8246835  45.5572658  95.2104495  46.3534601  45.0465113  94.5974657
  46.0875055  45.2415188  96.0750028  44.5785069  37.3364591 110.3327314
  43.9025706  37.2358720 111.0029689  45.4012702  37.1803804 110.7963311
  36.3263928  43.5736527 102.9539829  36.9117364  42.8280215 103.0867733
  36.1288766  43.8840484 103.8376493  39.1802583  46.6087775  97.9702271
  38.5112958  47.0933902  97.4866311  39.0415453  46.8556995  98.8845650
  30.9181582  36.1442127 101.6744272  30.9565682  35.6105718 102.4681390
  30.4121875  35.6177333 101.0555249  43.3207851  48.6431518 104.5684930
  43.8726160  48.8063140 105.3334015  43.6614045  49.2335956 103.8964954
  38.2972345  30.9906668 105.1706814  38.3613671  31.8521499 104.7584212
  38.2339465  30.3780670 104.4379173  48.1718726  43.4692776 110.4233584
  48.7158630  44.0822734 109.9288539  47.5905571  44.0272354 110.9400597
  34.5490160  34.8706230  94.7498203  34.8443601  33.9616908  94.6965257
  33.6478196  34.8493969  94.4279206  46.4576239  46.5913494 101.5548612
  46.3327378  45.7903233 101.0459557  47.1155330  47.0859687 101.0662582
  38.0784407  32.9462226 100.7325752  37.3570993  33.5598194 100.5933225
  38.8677663  33.4819991 100.6542398  48.5211147  44.3922514 103.1828162
  47.5741483  44.2727865 103.1106489  48.8693920  43.5045012 103.2654423
  40.8810721  30.2816653 107.0066404  41.4045122  30.5278949 107.7692713
  40.6623054  31.1136687 106.5869541  36.2778002  32.5520327  94.8737528
  35.9490708  31.6717706  94.6912634  36.6317372  32.4967996  95.7613918
  45.5257580  44.1875230  99.3832514  45.3782543  43.2591937  99.5640084
  46.3511074  44.2095321  98.8989589  39.3919825  32.8393297  95.2413006
  39.7315897  33.3679218  94.5191615  39.8391945  33.1773703  96.0171573
  49.1291702  45.0103789 100.4697387  50.0538250  44.8046650 100.3321838
  48.9607006  44.7620190 101.3786728  42.0863266  31.2230348 104.6916074
  41.7460086  30.4238161 105.0936754  41.3802272  31.5232059 104.1192907
  42.7379737  28.3079660 103.1443397  43.5605807  27.8340138 103.0222288
  42.9817801  29.0870144 103.6442084  41.3787972  31.3367919  93.4406299
  42.0996334  31.7149171  92.9370016  40.7553276  32.0556795  93.5441277
  45.5219095  32.0413068  94.3764631  45.7382709  32.9237705  94.0753459
  45.0413162  31.6499281  93.6470273  40.2618316  34.9998781 100.9535376
  40.1162897  35.3139084 101.8459657  39.7843520  35.6183681 100.4006274
  42.1214699  31.9901329 101.0016265  42.1076268  31.0942422 100.6648563
  42.8387127  31.9971993 101.6354551  43.9740830  32.4238669 103.0469393
  43.7158608  33.3455740 103.0453723  43.4425870  32.0269104 103.7369857
  48.9187018  45.5289456  95.8259478  49.0923896  44.9635879  95.0733331
  49.4115910  46.3290351  95.6438968  34.7363978  37.5404125 103.8923037
  34.1917446  38.3163933 104.0243311  35.6143328  37.8874930 103.7342158
  41.5251595  30.8715709  96.2703836  41.6467506  29.9432355  96.4694723
  41.2353637  30.8854395  95.3582151  44.3942785  28.5570620  99.4070555
  44.4164482  28.6209953  98.4522535  44.8110844  27.7175128  99.6011062
  54.7726410  38.2925879  97.4449778  55.2157556  37.5433204  97.0468901
  53.8952920  38.2836015  97.0623510  49.9062191  44.8456221  92.9256377
  50.6013096  45.4662913  93.1443691  50.2485341  43.9951572  93.2008754
  35.5230000  36.6674021 106.7853194  34.7811736  36.8156657 107.3717824
  35.2022744  36.9282287 105.9219943  51.8053614  42.2955926  94.4543707
  52.3304938  42.6343199  93.7293027  51.7175967  41.3602941  94.2706842
  43.4673663  46.2090000 106.5833584  43.7760789  45.9639146 107.4556283
  44.2649145  46.4136638 106.0952454  43.4894275  48.3627909  98.8138960
  43.0499265  47.8704288  99.5071817  44.2402392  47.8200877  98.5731036
  35.9686614  44.5539450  98.8163589  36.7944634  44.2543222  98.4362232
  35.6180666  43.7847073  99.2653377  40.9368147  43.9065918 100.8861262
  40.3148156  43.2436623 100.5863490  41.6073014  43.9327050 100.2034910
  34.1695219  42.4725777  99.7752522  33.3327127  42.0447951  99.5936523
  34.1418864  42.6658220 100.7123313  51.4947520  42.9288830 109.7594905
  50.7043064  42.9112969 109.2199405  51.2580875  43.4677123 110.5143942
  51.6145395  39.7781296 107.0727634  51.6643400  39.6131304 108.0143157
  51.5059319  38.9108555 106.6825515  40.4981654  42.4569842  94.3619723
  40.6469774  43.1405306  93.7086395  41.3048097  42.4374932  94.8769178
  48.9049158  35.7612224 108.3886940  49.8059020  35.6218689 108.0970938
  48.9797132  35.9266679 109.3285118  43.2391963  33.1379079 107.2340127
  42.3695272  33.4312645 106.9622715  43.4751443  33.7219524 107.9547390
  53.1163592  42.1978238 107.3169655  52.8248400  42.5608218 108.1533116
  52.5035723  41.4845246 107.1382987  54.3159274  39.7631117  99.8372226
  55.1506166  40.2020921 100.0009786  54.4518403  39.2869771  99.0180471
  51.3650780  37.3210852 105.7849713  51.8404902  37.5138499 104.9768565
  50.4416346  37.3770038 105.5393097  38.2534287  38.4835019  95.3680792
  38.0080329  37.5797349  95.5661002  38.4230201  38.4852170  94.4260270
  45.9430997  29.3558696 104.7505547  46.4612941  30.0919723 104.4252036
  45.5886130  29.6622689 105.5852306  37.5229934  34.2163377  92.8666953
  36.8299179  34.2907732  92.2106989  37.2781686  33.4523721  93.3888470
  46.1943591  25.7758978 100.2706444  46.4745345  25.1082167 100.8966870
  46.9794198  25.9688074  99.7581108  43.9977059  44.9517972  91.8331470
  43.4251027  45.5708159  91.3801942  44.5709853  45.5017334  92.3671392
  50.0652449  34.1976612 104.0178019  51.0169872  34.2974710 104.0390243
  49.8955900  33.4054881 104.5276103  48.0866829  31.2832196 104.2037420
  47.4916761  31.5637208 103.5083908  47.8016525  31.7726096 104.9754161
  47.2174319  45.2355122  92.9640052  48.1504992  45.1700684  93.1672928
  47.1297532  46.0711389  92.5054585  49.8462336  44.5520993  89.9244000
  49.7675967  44.2180856  90.8179758  50.6672003  45.0442761  89.9235472
  52.5440527  37.4182732 103.1320319  52.5116847  36.4798733 103.3180002
  53.1541151  37.4966769 102.3986143  44.3823858  36.2878785  89.1747523
  45.3282963  36.1584993  89.2435941  44.0038103  35.5493447  89.6516951
  52.6935016  34.2093775 103.1778602  52.1774064  33.4252232 102.9908531
  53.5774964  33.8812492 103.3425121  50.3545742  27.9534791  99.1374414
  50.1570564  27.6449879 100.0217746  50.9645448  28.6796430  99.2672344
  58.3617077  38.4798739 102.2726355  59.0920465  38.2184027 102.8334059
  57.7524022  37.7427461 102.3128423  56.4432374  36.6206601 102.8700807
  55.7165538  36.4862566 102.2617298  56.0279661  36.9283430 103.6757525
  44.2662550  40.3396531 110.6348180  45.1865560  40.5175130 110.8288226
  44.2312133  39.3952576 110.4827879  42.5666775  34.2128761  89.1102408
  41.6598230  33.9161874  89.1865121  42.8442756  33.9158579  88.2436694
  33.4844715  35.5335125  99.5601454  33.1647500  34.6800433  99.2675828
  32.9378144  35.7483703 100.3159422  37.2624623  38.2497566 103.2770961
  37.4810633  39.1814674 103.2958995  37.6750397  37.8905540 104.0625765
  44.1828841  28.7565651  95.2646649  43.3729569  28.4112736  95.6401895
  44.8713258  28.4473195  95.8534261  46.1119389  27.8343698  96.8870946
  46.6650428  28.2539151  97.5460969  46.3489475  26.9079446  96.9293902
  41.3365560  31.0715697  89.2514387  42.1984724  31.3970595  89.5110204
  41.5215904  30.2847192  88.7387453  33.3532975  39.1538036 101.5294576
  32.6596447  38.7391989 101.0164530  34.1005966  39.1958573 100.9327995
  49.4898196  29.9444223  96.3949610  48.9096865  30.6029027  96.0127662
  49.2234129  29.1221568  95.9837028  47.9401763  29.3449281  98.5970930
  48.4401541  29.4565815  97.7885249  48.5837370  29.0410334  99.2371739
  41.9983758  37.2527910 111.4838771  41.5150840  38.0528270 111.6902660
  42.0844697  37.2635855 110.5306215  35.2669718  39.0856290  99.4060591
  35.2440406  39.1843977  98.4542474  35.5770354  39.9321441  99.7277757
  37.9257096  41.1432445 103.5207205  38.8800349  41.1116387 103.4537137
  37.7269619  40.6823069 104.3357431  38.5156478  39.7133561 106.0878003
  39.3349367  40.2077640 106.1112840  38.7893286  38.7965529 106.0595570
  48.2723074  32.1044313  95.4505958  47.3848929  32.3893964  95.2326153
  48.6877063  31.9438077  94.6033235  51.6237610  32.1290834  99.1660298
  52.3998000  32.6187287  99.4384914  50.8985745  32.5548889  99.6232167
  54.0610169  32.8418454 100.2234238  54.6554660  32.6014190  99.5127546
  54.1336753  32.1225584 100.8507774  36.2807325  46.6852065 100.5377403
  36.1461793  45.9252465  99.9715401  35.8639387  47.4092964 100.0706192
  47.4166288  41.8688988  89.5453978  48.1202138  42.0738991  90.1611634
  46.6928936  42.4365750  89.8103062  48.2464098  37.6198849  95.6656248
  48.1899299  38.0767401  94.8263881  48.7992440  36.8589534  95.4879091
  52.0568904  33.4088581  96.4906368  51.8005838  33.0085217  97.3214576
  51.4321772  34.1232375  96.3656507  56.3681242  36.1484654  98.9977659
  55.8080800  36.2177844  99.7709221  55.7624745  35.9725639  98.2777156
  39.4376451  47.5821382 100.7495846  39.3208835  48.5266814 100.6474536
  38.6168897  47.2794943 101.1381645  49.3252985  42.3071517  91.5952438
  50.1598589  41.8752716  91.4129913  49.1637328  42.1353531  92.5229333
  48.9798877  38.8103631  92.9608778  48.9247681  38.6447902  92.0197222
  48.3544933  39.5179664  93.1170967  33.7691392  34.0471695 106.7870200
  34.4150256  33.5370649 107.2757425  33.5608543  34.7840377 107.3613625
  46.2944784  41.1152542 112.2862340  47.1635944  41.2893195 111.9248975
  45.8151536  41.9346959 112.1638070  42.2895003  28.3111740  92.5394096
  42.2773673  29.2553580  92.6962367  43.1818425  28.1281885  92.2453557
  40.4630965  48.2349643 103.9651774  41.3658211  48.2673254 104.2818269
  40.2368335  47.3050094 103.9798110  42.2184567  46.9880630 100.6261853
  41.2680198  46.9882492 100.5126225  42.5217053  46.2413365 100.1097887
  46.1047122  24.9054516  96.7940033  45.3379518  24.3513003  96.9396715
  46.5157827  24.9776385  97.6554184  57.9537260  52.8241168 101.6907615
  58.5915670  52.7047916 100.9870955  57.8358103  53.7722012 101.7495567
  54.7626966  52.7768597 101.6269140  54.4245478  52.6609661 100.7389675
  55.6316735  52.3759762 101.6070146  50.6213782  54.6304073  97.6166031
  50.0578647  54.5394010  96.8482318  50.5066177  53.8103977  98.0968523
  55.2446749  53.9303448 107.5855345  55.2335390  53.5356247 106.7135849
  55.4067389  53.1969521 108.1789117  48.1678214  56.1255265 100.4550251
  48.9599506  55.7846089 100.0396550  48.4074864  56.2350240 101.3752404
  56.2013341  58.2975041  92.9280496  55.5501321  58.8829121  92.5414509
  56.9957704  58.8281236  92.9875533  50.1268968  55.3864178  93.3267630
  50.8999844  54.8393165  93.1880506  50.4794367  56.2508427  93.5382091
  51.9654011  56.7140560 106.5334529  51.6743877  57.6186191 106.4181196
  52.6010995  56.7557088 107.2478599  52.8910217  54.0917409 103.1235889
  53.4873790  53.8673431 102.4092852  52.9485189  53.3502154 103.7261337
  52.4635246  51.5456844  90.9586080  52.7160767  51.0238365  90.1969543
  51.5259805  51.3822989  91.0612763  57.5078529  50.5492622  98.7660823
  58.2941618  50.1312045  98.4151240  57.7717233  51.4538714  98.9342471
  57.6788606  55.9865473  93.4649480  57.0434439  56.0600099  94.1770385
  57.3486012  56.5759071  92.7868559  62.9086956  50.4867855  99.6693802
  63.6412128  49.9167072  99.9031631  62.1526311  50.0989456 100.1100307
  52.1831535  53.4484950  93.1610455  52.0667793  52.7729853  93.8291539
  52.2933794  52.9617324  92.3442608  54.5263075  52.9095097  96.8657144
  54.1621283  52.3825718  97.5770066  55.3830191  52.5193566  96.6923629
  60.4312376  44.1989430 104.1288410  60.0995701  45.0684841 103.9049625
  59.8357990  43.8825714 104.8082441  54.1668562  47.9384997  91.8618493
  54.3342965  48.8065233  92.2288964  53.9765732  48.1012278  90.9379782
  56.9243896  56.4001976 103.5284323  56.6244619  57.3027014 103.4200130
  56.5794955  56.1334159 104.3805476  50.3756377  52.8515772  99.5621027
  49.4506874  52.7191987  99.7698719  50.6240790  53.6309992 100.0590970
  60.3241039  48.9184516 101.2081760  59.4157917  48.8499924 100.9140521
  60.2728635  49.3956461 102.0363586  54.1457783  50.3942654  92.8465159
  54.0257409  50.8399705  93.6850640  53.4510372  50.7427972  92.2878698
  47.7365188  52.4949046 100.3964816  47.8657569  52.7483525 101.3104228
  47.0562639  53.0876754 100.0769472  51.9064675  63.1646296  96.4955291
  51.8288705  64.1154121  96.5743771  51.3026319  62.8192168  97.1530217
  54.3981905  50.3374161 109.1516658  53.6215239  50.8968081 109.1419522
  55.0372468  50.8230944 109.6731528  62.1902686  47.1200954 102.9859634
  61.5477066  47.4133487 102.3399429  61.6857614  47.0053874 103.7912831
  59.8442850  50.8664127  93.6745493  60.7560706  51.0991514  93.4993191
  59.3352497  51.4501172  93.1120572  52.6528278  53.1459615 108.7134625
  53.3942962  53.6844659 108.4369448  51.9465263  53.7725903 108.8706176
  58.1283617  55.2888755 107.3106786  58.5366973  54.8471166 106.5661418
  57.4060879  54.7141383 107.5640979  54.4814687  50.2261362 104.6840343
  55.3275882  50.6500775 104.8274992  54.4213325  49.5694986 105.3778906
  58.4512432  55.8489946 101.0659075  57.8221294  56.0135660 100.3635143
  58.0638094  56.2631555 101.8370039  62.3301664  56.7844384  98.4203439
  61.6452702  57.1643285  97.8700472  62.4145513  57.3939710  99.1535386
  57.6314133  47.8865730 106.3421517  57.3875064  48.6407791 105.8055792
  57.9074063  48.2651078 107.1768764  59.5852595  54.4304343 105.0198782
  59.7969491  55.0736103 104.3433163  59.5382344  53.5966659 104.5520712
  57.1878824  47.0422163 101.9235354  56.3263303  47.3403417 102.2152092
  57.2141259  47.2592562 100.9916387  54.0040394  55.5864354  98.3309160
  54.4678739  55.8652057  97.5413782  53.7397192  54.6847798  98.1482251
  50.8964475  55.1335835 101.2688923  51.4665832  55.5623104 100.6306408
  51.4872587  54.8518420 101.9673109  52.9409280  51.7087506  95.1398725
  53.6433323  52.1608550  95.6072652  52.6089908  51.0671325  95.7678618
  51.3889641  50.2999263 109.5149935  50.7588302  50.9815544 109.7485331
  51.2825729  50.1882344 108.5703073  46.6834614  49.9671059 100.4415859
  45.8933668  50.2228587  99.9655969  47.1745861  50.7819397 100.5467899
  60.6998423  57.3076298 103.1921140  61.5215867  56.9056485 102.9103821
  60.6960826  57.2044532 104.1437255  48.6349359  50.3315638  97.3999335
  47.8380522  50.4434332  97.9182831  48.4074951  50.6702290  96.5340226
  54.4655027  56.8560341 105.3481850  54.5299459  57.3180749 106.1840022
  53.7565951  56.2257706 105.4764160  44.9672317  50.2201549 102.8730850
  45.2180355  51.1048559 103.1388425  45.5031865  50.0406151 102.1005941
  68.7904416  53.6515047  99.5406111  68.0368125  53.0822445  99.3850115
  68.9251958  53.6177711 100.4876746  54.1803044  58.5228449  95.2160830
  54.0448719  59.3679985  95.6445678  54.7212857  58.7247727  94.4526764
  50.6670384  44.6020029 111.8775186  50.2737330  44.0486227 112.5522830
  51.4836524  44.9130607 112.2681703  47.6332442  56.0403887  95.7888755
  48.1456962  56.8347137  95.9394320  48.2855155  55.3430177  95.7222357
  49.4427326  59.1569643  97.8711509  49.6193955  60.0787608  97.6832493
  50.2384160  58.8428062  98.3005888  53.5838345  46.0177908 109.4695442
  54.3248058  46.6185061 109.3899905  53.8156268  45.2755546 108.9113485
  48.7279683  51.2034275 107.7473672  48.6133198  50.3019532 108.0480771
  47.8724201  51.4497972 107.3958488  55.8071521  59.1452015 109.3461172
  55.3635375  58.3588394 109.0282077  56.4688734  59.3331166 108.6805063
  50.5658642  60.6747817 103.8721851  51.1166067  60.5464880 103.0998845
  49.7270118  60.9742706 103.5216744  57.9052759  59.4254815 107.3742574
  57.8871234  60.2463696 106.8822843  58.8272679  59.3008891 107.5992715
  54.3625813  56.9398945 108.2166082  54.8954150  56.1787233 107.9865390
  53.8339894  56.6472597 108.9590237  57.5295508  42.0459011 103.7459724
  57.1859777  42.9360652 103.6698834  57.8974471  41.8560668 102.8829309
  45.5981359  54.3692541  96.5648326  46.4356581  54.7789550  96.3482034
  45.7759626  53.4291983  96.5348520  57.4945791  52.0367622  92.2532159
  56.9792414  52.8072226  92.4920546  57.2223099  51.3632758  92.8765220
  55.0792902  46.8817323  97.3117397  54.2234498  46.4924173  97.1323036
  55.4919853  46.9609283  96.4517183  56.6092048  44.4163666 101.7108957
  56.1056844  44.3793801 100.8976762  56.9022655  45.3256409 101.7705614
  52.8534934  44.5002396 100.7175139  53.7187931  44.3045204 100.3581028
  52.9212443  44.2712747 101.6444496  62.4680065  54.7899977  94.1885332
  61.6909508  54.4511136  93.7440494  63.1471546  54.7952600  93.5140297
  57.2832094  49.9094714  94.0791940  56.9782229  50.2240863  94.9302083
  58.2362536  49.9876134  94.1219273  55.7278526  56.0684937  95.7284894
  55.1999887  55.3337697  95.4158132  55.2266028  56.8459614  95.4824862
  60.7071372  54.2633958 100.8451940  60.0495046  54.9533219 100.9332069
  61.5111771  54.6530390 101.1885927  50.4597253  46.7304604  98.0891506
  51.0341005  46.5079785  97.3564699  51.0468236  46.7993298  98.8420107
  59.5176831  52.6178330  98.8955882  60.0308712  53.2508322  99.3977592
  60.1678054  52.0179526  98.5299242  50.7866840  48.7609065  92.1087391
  49.9504153  49.0983751  92.4296666  50.6471610  48.6258044  91.1714528
  52.7619921  43.6045852  96.8166575  52.1084333  43.2894870  96.1923190
  52.7200395  42.9821593  97.5426398  53.8731126  53.8865148  88.7319867
  52.9658188  53.6554401  88.9311016  54.3702158  53.0902767  88.9193849
  56.7799205  62.5962655  91.6516553  56.1060904  62.8994351  92.2601511
  57.1665027  63.3991735  91.3022010  55.9957661  50.0927786 101.1414223
  55.0780223  50.3142733 100.9835911  56.4117805  50.1674096 100.2825930
  56.7792709  51.4919202  96.2716903  57.5264528  52.0040599  95.9624025
  57.0484299  51.1703254  97.1321296  55.0519359  53.9877742  93.2543857
  54.1430579  53.7036775  93.3516327  55.0814443  54.4076821  92.3947164
  60.2838627  57.5984332  97.0235025  59.8300954  56.7575242  97.0800215
  59.6532593  58.2345730  97.3609805  59.2271546  48.5276318  98.2535692
  58.4894303  48.0153704  98.5845935  59.4798320  48.0876700  97.4418969
  58.7271566  59.4360829  97.9584843  59.0194540  59.9965886  97.2397209
  59.2370187  59.7289390  98.7138002  59.3283174  41.3052570  98.8477462
  59.6342050  40.4449933  98.5603377  60.0535778  41.8970190  98.6476455
  45.6207530  51.7083257  97.2359059  45.4231929  51.1152617  96.5110126
  45.0654194  51.4035467  97.9534998  53.6004253  51.6006363  99.3553653
  53.6552863  50.6480199  99.2796129  52.7895455  51.7565802  99.8394951
  54.7495447  55.5286486  90.5931936  54.3114877  54.8122345  90.1337573
  55.4905888  55.7562601  90.0317027  51.5396613  50.2183423  97.1144031
  50.7264479  50.5177593  97.5209224  52.0355607  49.8239112  97.8318514
  53.6905191  60.2141180  99.0478296  53.6481370  60.4402026  98.1186828
  54.6067890  59.9804554  99.1964097  57.1370825  50.6825247 105.9458925
  57.4920213  50.9096720 106.8053391  57.7842956  51.0143624 105.3236181
  62.8668562  53.8043683  96.6508254  62.7286460  53.9945279  95.7229444
  62.5104781  54.5663066  97.1076306  51.0310688  47.7901778 102.7305266
  51.6710067  47.6490537 102.0328230  50.1988219  47.5036292 102.3543868
  62.8937941  55.8720210 101.6619526  63.3274448  55.7795499 102.5102580
  63.6069522  55.8477711 101.0239542  51.8070992  57.0904209  98.8440259
  52.6011590  56.5954529  98.6422834  51.0962684  56.5622072  98.4807964
  56.6265836  59.4722304 103.1952626  56.6802859  60.0413241 103.9630342
  55.7580618  59.6424189 102.8306664  48.1153755  51.2347290  94.9200012
  47.1851343  51.1731746  95.1369974  48.2111227  50.7123243  94.1236653
  48.0339304  47.7602103  97.5078253  48.2946122  48.6747437  97.3987414
  48.8556477  47.2926546  97.6574866  49.5064230  49.1739860 104.6777078
  50.1787283  48.9657223 104.0289727  48.6794016  48.9761946 104.2382310
  63.7553491  55.9143911 104.1952411  63.9489381  56.8189721 104.4411686
  63.6554109  55.4551330 105.0290996  55.4089802  45.8001801 106.6942739
  54.7617717  46.4991751 106.6007215  56.1790817  46.2337945 107.0618987
  58.8168600  56.0650654 109.7693292  58.6654106  55.8361205 108.8523376
  58.8073279  57.0221255 109.7824637  55.5853936  53.6382566 104.7539558
  56.5145996  53.7893726 104.5808526  55.1644966  53.7266587 103.8988205
  54.3842268  57.6633231 102.5238096  54.2453354  57.2952015 103.3964034
  53.5956864  58.1780870 102.3522054  54.9790420  62.7642327  93.8663632
  55.1542176  62.2930370  94.6809255  54.2923208  63.3908093  94.0944893
  55.9347483  57.0414833  99.9126934  55.5997316  57.0015603 100.8084584
  55.4351429  56.3759549  99.4397344  49.9091727  52.4482463 105.4379515
  49.7711525  51.7162702 106.0391054  50.8196650  52.3591364 105.1563703
  58.8706675  54.3870868  90.1863993  58.2535845  53.6617696  90.0897046
  58.4023163  55.1480228  89.8431068  52.5374028  52.1602423 104.9263195
  53.2473646  51.5195615 104.8849813  52.4943336  52.4115318 105.8489375
  60.5260806  59.0969776 107.8469774  60.4673353  58.4128996 107.1800357
  60.9280325  59.8388766 107.3950400  51.2502962  49.1467641 106.7458834
  50.7140319  48.6958379 107.3980430  50.6619670  49.2813549 106.0029298
  49.5451505  65.9131690 100.6403493  49.7848103  66.5450214 101.3182511
  48.7020702  65.5619730 100.9268852  50.6605221  48.6056292  89.3085298
  49.7834687  48.4845093  88.9447544  51.1362974  47.8142370  89.0564186
  60.5278214  57.0609360 106.0783753  59.6404992  56.7235282 106.2010152
  61.0976765  56.3292391 106.3152519  42.1807361  53.3933452  99.4026805
  42.8678401  53.0795182  98.8147820  42.0255489  54.2974816  99.1294056
  46.9842083  48.2823648 103.8311829  46.9000272  47.6749318 103.0962238
  46.1624789  48.7732667 103.8321325  54.0579367  61.7210812 103.0444997
  53.9849539  62.5265784 103.5564301  53.6156760  61.9202778 102.2193018
  53.8469147  60.9582582  96.5547818  53.0636669  61.5004263  96.6486043
  54.5461892  61.4756562  96.9542059  57.1565797  46.7677212  99.1982024
  57.6534496  46.0147174  98.8783094  56.3852778  46.8041528  98.6325233
  65.0095554  52.4717577 100.8400315  64.9985430  53.3542293 100.4694248
  64.1412934  52.1189128 100.6454852  56.5178051  61.6197646 105.2003155
  57.2306023  62.2545111 105.1279057  56.0268079  61.7161512 104.3843157
  58.2395577  55.5248899  96.7720447  57.3051856  55.6450362  96.6025151
  58.4172246  54.6221366  96.5080457  53.7400766  48.9094595  98.9253708
  53.3698553  48.3565635  99.6134614  54.2359858  48.3052728  98.3728708
  61.6268129  51.3666218  97.3070481  62.0928581  52.1994210  97.2330784
  62.0775629  50.9011200  98.0115740  51.5689964  59.3692090 106.0208726
  52.2699424  60.0028573 106.1738120  51.0985079  59.7106821 105.2604365
  59.6944360  57.7110040  94.3056633  59.9704204  57.5966634  95.2150507
  58.8248859  57.3127524  94.2668806  59.5984792  43.7346805 101.3461382
  58.6847871  43.9651032 101.5143589  60.0277893  43.8185249 102.1975415
  59.3691250  51.9236697 103.8461276  58.7162700  52.1712605 103.1913729
  59.7471630  51.1100835 103.5123754  56.3298424  61.9596390  97.9489447
  56.5120818  61.1418046  98.4117199  57.1531410  62.1764083  97.5114337
  56.6640589  60.8864576  95.2104495  57.1928356  60.3757030  94.5974657
  56.9268809  60.5707106  96.0750028  55.4178823  52.6656508 110.3327314
  54.7419460  52.5650638 111.0029689  56.2406457  52.5095722 110.7963311
  47.1657682  58.9028445 102.9539829  47.7511119  58.1572133 103.0867733
  46.9682521  59.2132402 103.8376493  50.0196337  61.9379692  97.9702271
  49.3506713  62.4225820  97.4866311  49.8809207  62.1848913  98.8845650
  41.7575337  51.4734045 101.6744272  41.7959436  50.9397636 102.4681390
  41.2515630  50.9469251 101.0555249  54.1601606  63.9723436 104.5684930
  54.7119914  64.1355057 105.3334015  54.5007799  64.5627874 103.8964954
  49.1366099  46.3198586 105.1706814  49.2007426  47.1813417 104.7584212
  49.0733219  45.7072587 104.4379173  48.6118372  48.3921718 108.8179849
  49.2390411  48.0098795 109.4317373  47.7546291  48.1735920 109.1835541
  59.0112480  58.7984693 110.4233584  59.5552384  59.4114652 109.9288539
  58.4299325  59.3564272 110.9400597  45.3883914  50.1998147  94.7498203
  45.6837356  49.2908826  94.6965257  44.4871950  50.1785887  94.4279206
  57.2969993  61.9205411 101.5548612  57.1721133  61.1195151 101.0459557
  57.9549084  62.4151605 101.0662582  48.9178161  48.2754144 100.7325752
  48.1964747  48.8890112 100.5933225  49.7071417  48.8111909 100.6542398
  59.3604902  59.7214431 103.1828162  58.4135237  59.6019783 103.1106489
  59.7087675  58.8336929 103.2654423  51.7204475  45.6108570 107.0066404
  52.2438877  45.8570867 107.7692713  51.5016808  46.4428605 106.5869541
  47.1171756  47.8812245  94.8737528  46.7884462  47.0009624  94.6912634
  47.4711127  47.8259914  95.7613918  56.3651335  59.5167148  99.3832514
  56.2176297  58.5883855  99.5640084  57.1904828  59.5387238  98.8989589
  50.2313579  48.1685215  95.2413006  50.5709652  48.6971136  94.5191615
  50.6785700  48.5065621  96.0171573  59.9685457  60.3395706 100.4697387
  60.8932004  60.1338568 100.3321838  59.8000760  60.0912108 101.3786728
  52.9257020  46.5522265 104.6916074  52.5853840  45.7530079 105.0936754
  52.2196026  46.8523976 104.1192907  53.5773492  43.6371578 103.1443397
  54.3999561  43.1632056 103.0222288  53.8211555  44.4162062 103.6442084
  52.2181726  46.6659836  93.4406299  52.9390089  47.0441089  92.9370016
  51.5947030  47.3848713  93.5441277  56.3612849  47.3704985  94.3764631
  56.5776464  48.2529623  94.0753459  55.8806916  46.9791199  93.6470273
  51.1012071  50.3290699 100.9535376  50.9556651  50.6431002 101.8459657
  50.6237274  50.9475599 100.4006274  52.9608453  47.3193246 101.0016265
  52.9470022  46.4234340 100.6648563  53.6780882  47.3263910 101.6354551
  54.8134584  47.7530587 103.0469393  54.5552362  48.6747657 103.0453723
  54.2819625  47.3561021 103.7369857  59.7580773  60.8581374  95.8259478
  59.9317651  60.2927796  95.0733331  60.2509664  61.6582269  95.6438968
  45.5757733  52.8696043 103.8923037  45.0311201  53.6455851 104.0243311
  46.4537083  53.2166847 103.7342158  52.3645349  46.2007627  96.2703836
  52.4861261  45.2724273  96.4694723  52.0747392  46.2146313  95.3582151
  55.2336540  43.8862537  99.4070555  55.2558237  43.9501870  98.4522535
  55.6504599  43.0467046  99.6011062  65.6120164  53.6217797  97.4449778
  66.0551310  52.8725122  97.0468901  64.7346674  53.6127933  97.0623510
  60.7455945  60.1748138  92.9256377  61.4406850  60.7954831  93.1443691
  61.0879096  59.3243489  93.2008754  46.3623755  51.9965939 106.7853194
  45.6205491  52.1448575 107.3717824  46.0416499  52.2574205 105.9219943
  62.6447369  57.6247844  94.4543707  63.1698693  57.9635117  93.7293027
  62.5569721  56.6894859  94.2706842  54.3067417  61.5381917 106.5833584
  54.6154544  61.2931064 107.4556283  55.1042899  61.7428556 106.0952454
  54.3288029  63.6919827  98.8138960  53.8893020  63.1996206  99.5071817
  55.0796146  63.1492795  98.5731036  46.8080368  59.8831368  98.8163589
  47.6338388  59.5835140  98.4362232  46.4574420  59.1138990  99.2653377
  51.7761901  59.2357836 100.8861262  51.1541911  58.5728541 100.5863490
  52.4466768  59.2618968 100.2034910  45.0088973  57.8017694  99.7752522
  44.1720882  57.3739869  99.5936523  44.9812619  57.9950138 100.7123313
  51.8486429  47.7139624 110.4793768  51.8974584  48.5901747 110.0971538
  52.3908943  47.1717017 109.9065411  62.3341275  58.2580747 109.7594905
  61.5436818  58.2404886 109.2199405  62.0974629  58.7969041 110.5143942
  62.4539150  55.1073214 107.0727634  62.5037155  54.9423221 108.0143157
  62.3453073  54.2400473 106.6825515  51.3375408  57.7861759  94.3619723
  51.4863529  58.4697224  93.7086395  52.1441852  57.7666850  94.8769178
  59.7442912  51.0904142 108.3886940  60.6452775  50.9510607 108.0970938
  59.8190887  51.2558597 109.3285118  54.0785717  48.4670997 107.2340127
  53.2089027  48.7604563 106.9622715  54.3145198  49.0511442 107.9547390
  63.9557347  57.5270155 107.3169655  63.6642155  57.8900136 108.1533116
  63.3429478  56.8137164 107.1382987  65.1553029  55.0923035  99.8372226
  65.9899920  55.5312839 100.0009786  65.2912158  54.6161688  99.0180471
  62.2044535  52.6502770 105.7849713  62.6798656  52.8430416 104.9768565
  61.2810100  52.7061956 105.5393097  49.0928041  53.8126937  95.3680792
  48.8474083  52.9089267  95.5661002  49.2623956  53.8144088  94.4260270
  56.7824751  44.6850613 104.7505547  57.3006695  45.4211640 104.4252036
  56.4279884  44.9914607 105.5852306  48.3623689  49.5455295  92.8666953
  47.6692934  49.6199650  92.2106989  48.1175441  48.7815638  93.3888470
  57.0337345  41.1050896 100.2706444  57.3139099  40.4374085 100.8966870
  57.8187952  41.2979992  99.7581108  54.8370814  60.2809890  91.8331470
  54.2644781  60.9000077  91.3801942  55.4103608  60.8309252  92.3671392
  60.9046204  49.5268530 104.0178019  61.8563627  49.6266628 104.0390243
  60.7349654  48.7346799 104.5276103  58.9260583  46.6124113 104.2037420
  58.3310515  46.8929126 103.5083908  58.6410280  47.1018014 104.9754161
  58.0568074  60.5647040  92.9640052  58.9898747  60.4992602  93.1672928
  57.9691287  61.4003307  92.5054585  60.6856090  59.8812910  89.9244000
  60.6069722  59.5472774  90.8179758  61.5065757  60.3734678  89.9235472
  63.3834282  52.7474650 103.1320319  63.3510602  51.8090650 103.3180002
  63.9934905  52.8258686 102.3986143  55.2217612  51.6170703  89.1747523
  56.1676717  51.4876911  89.2435941  54.8431857  50.8785365  89.6516951
  63.5328770  49.5385693 103.1778602  63.0167819  48.7544150 102.9908531
  64.4168719  49.2104410 103.3425121  61.1939497  43.2826709  99.1374414
  60.9964318  42.9741797 100.0217746  61.8039203  44.0088348  99.2672344
  69.2010831  53.8090657 102.2726355  69.9314220  53.5475945 102.8334059
  68.5917777  53.0719378 102.3128423  67.2826129  51.9498519 102.8700807
  66.5559292  51.8154484 102.2617298  66.8673415  52.2575348 103.6757525
  55.1056305  55.6688449 110.6348180  56.0259314  55.8467048 110.8288226
  55.0705888  54.7244494 110.4827879  53.4060530  49.5420679  89.1102408
  52.4991985  49.2453792  89.1865121  53.6836511  49.2450497  88.2436694
  44.3238470  50.8627042  99.5601454  44.0041254  50.0092351  99.2675828
  43.7771898  51.0775621 100.3159422  48.1018377  53.5789483 103.2770961
  48.3204387  54.5106591 103.2958995  48.5144151  53.2197458 104.0625765
  55.0222595  44.0857569  95.2646649  54.2123324  43.7404654  95.6401895
  55.7107012  43.7765112  95.8534261  56.9513144  43.1635616  96.8870946
  57.5044182  43.5831069  97.5460969  57.1883230  42.2371364  96.9293902
  52.9746243  49.1522689 112.6673710  52.8742970  50.1017046 112.5985801
  52.7567785  48.8240928 111.7949780  52.1759314  46.4007614  89.2514387
  53.0378478  46.7262513  89.5110204  52.3609658  45.6139110  88.7387453
  44.1926730  54.4829954 101.5294576  43.4990201  54.0683907 101.0164530
  44.9399721  54.5250490 100.9327995  60.3291951  45.2736141  96.3949610
  59.7490620  45.9320945  96.0127662  60.0627883  44.4513485  95.9837028
  58.7795517  44.6741198  98.5970930  59.2795295  44.7857733  97.7885249
  59.4231125  44.3702251  99.2371739  52.8377513  52.5819828 111.4838771
  52.3544595  53.3820188 111.6902660  52.9238452  52.5927773 110.5306215
  46.1063472  54.4148208  99.4060591  46.0834161  54.5135895  98.4542474
  46.4164109  55.2613359  99.7277757  48.7650850  56.4724363 103.5207205
  49.7194104  56.4408305 103.4537137  48.5663374  56.0114986 104.3357431
  49.3550232  55.0425479 106.0878003  50.1743121  55.5369557 106.1112840
  49.6287040  54.1257447 106.0595570  59.1116829  47.4336231  95.4505958
  58.2242684  47.7185882  95.2326153  59.5270818  47.2729994  94.6033235
  62.4631365  47.4582752  99.1660298  63.2391755  47.9479205  99.4384914
  61.7379499  47.8840806  99.6232167  64.9003923  48.1710371 100.2234238
  65.4948414  47.9306107  99.5127546  64.9730507  47.4517502 100.8507774
  47.1201079  62.0143982 100.5377403  46.9855547  61.2544383  99.9715401
  46.7033141  62.7384882 100.0706192  58.2560042  57.1980906  89.5453978
  58.9595892  57.4030908  90.1611634  57.5322691  57.7657668  89.8103062
  59.0857852  52.9490767  95.6656248  59.0293054  53.4059318  94.8263881
  59.6386195  52.1881452  95.4879091  62.8962658  48.7380499  96.4906368
  62.6399593  48.3377135  97.3214576  62.2715526  49.4524293  96.3656507
  67.2074996  51.4776572  98.9977659  66.6474554  51.5469761  99.7709221
  66.6018500  51.3017557  98.2777156  50.2770205  62.9113299 100.7495846
  50.1602589  63.8558732 100.6474536  49.4562651  62.6086861 101.1381645
  60.1646740  57.6363435  91.5952438  60.9992343  57.2044633  91.4129913
  60.0031082  57.4645449  92.5229333  59.8192632  54.1395548  92.9608778
  59.7641436  53.9739820  92.0197222  59.1938687  54.8471581  93.1170967
  44.6085147  49.3763613 106.7870200  45.2544010  48.8662567 107.2757425
  44.4002298  50.1132294 107.3613625  57.1338539  56.4444460 112.2862340
  58.0029699  56.6185112 111.9248975  56.6545290  57.2638877 112.1638070
  53.1288757  43.6403657  92.5394096  53.1167427  44.5845497  92.6962367
  54.0212179  43.4573803  92.2453557  51.3024719  63.5641561 103.9651774
  52.2051966  63.5965171 104.2818269  51.0762089  62.6342012 103.9798110
  53.0578321  62.3172548 100.6261853  52.1073952  62.3174409 100.5126225
  53.3610807  61.5705282 100.1097887  56.9440877  40.2346434  96.7940033
  56.1773272  39.6804921  96.9396715  57.3551582  40.3068303  97.6554184
  48.9482638  46.5231230 110.8845214  49.8114099  46.1668035 111.0948539
  48.3748048  46.1845125 111.5720618  68.7931015  68.1533086 101.6907615
  69.4309425  68.0339833 100.9870955  68.6751858  69.1013930 101.7495567
  65.6020721  68.1060514 101.6269140  65.2639232  67.9901579 100.7389675
  66.4710489  67.7051679 101.6070146  61.4607537  69.9595991  97.6166031
  60.8972402  69.8685928  96.8482318  61.3459932  69.1395895  98.0968523
  66.0840504  69.2595366 107.5855345  66.0729145  68.8648164 106.7135849
  66.2461143  68.5261439 108.1789117  59.0071969  71.4547182 100.4550251
  59.7993260  71.1138007 100.0396550  59.2468619  71.5642157 101.3752404
  67.0407095  73.6266958  92.9280496  66.3895075  74.2121039  92.5414509
  67.8351458  74.1573153  92.9875533  60.9662722  70.7156095  93.3267630
  61.7393598  70.1685083  93.1880506  61.3188121  71.5800345  93.5382091
  62.8047765  72.0432478 106.5334529  62.5137631  72.9478109 106.4181196
  63.4404749  72.0849005 107.2478599  63.7303972  69.4209326 103.1235889
  64.3267544  69.1965349 102.4092852  63.7878943  68.6794072 103.7261337
  63.3029000  66.8748762  90.9586080  63.5554521  66.3530283  90.1969543
  62.3653559  66.7114907  91.0612763  68.3472283  65.8784540  98.7660823
  69.1335372  65.4603963  98.4151240  68.6110987  66.7830632  98.9342471
  68.5182360  71.3157390  93.4649480  67.8828193  71.3892017  94.1770385
  68.1879767  71.9050989  92.7868559  73.7480710  65.8159773  99.6693802
  74.4805882  65.2458990  99.9031631  72.9920066  65.4281374 100.1100307
  63.0225289  68.7776868  93.1610455  62.9061547  68.1021771  93.8291539
  63.1327549  68.2909241  92.3442608  65.3656830  68.2387015  96.8657144
  65.0015037  67.7117636  97.5770066  66.2223946  67.8485484  96.6923629
  71.2706131  59.5281347 104.1288410  70.9389455  60.3976758 103.9049625
  70.6751744  59.2117631 104.8082441  65.0062317  63.2676914  91.8618493
  65.1736719  64.1357151  92.2288964  64.8159486  63.4304196  90.9379782
  67.7637650  71.7293893 103.5284323  67.4638373  72.6318932 103.4200130
  67.4188710  71.4626076 104.3805476  61.2150132  68.1807690  99.5621027
  60.2900628  68.0483904  99.7698719  61.4634545  68.9601909 100.0590970
  71.1634794  64.2476433 101.2081760  70.2551671  64.1791842 100.9140521
  71.1122390  64.7248378 102.0363586  64.9851538  65.7234572  92.8465159
  64.8651163  66.1691623  93.6850640  64.2904126  66.0719890  92.2878698
  58.5758943  67.8240964 100.3964816  58.7051324  68.0775443 101.3104228
  57.8956394  68.4168672 100.0769472  62.7458430  78.4938214  96.4955291
  62.6682460  79.4446039  96.5743771  62.1420074  78.1484086  97.1530217
  65.2375660  65.6666079 109.1516658  64.4608994  66.2259999 109.1419522
  65.8766223  66.1522862 109.6731528  73.0296440  62.4492872 102.9859634
  72.3870821  62.7425405 102.3399429  72.5251369  62.3345792 103.7912831
  70.6836604  66.1956045  93.6745493  71.5954460  66.4283432  93.4993191
  70.1746251  66.7793089  93.1120572  63.4922032  68.4751532 108.7134625
  64.2336716  69.0136576 108.4369448  62.7859017  69.1017821 108.8706176
  68.9677372  70.6180673 107.3106786  69.3760728  70.1763083 106.5661418
  68.2454633  70.0433300 107.5640979  65.3208442  65.5553280 104.6840343
  66.1669637  65.9792693 104.8274992  65.2607079  64.8986904 105.3778906
  69.2906186  71.1781863 101.0659075  68.6615049  71.3427578 100.3635143
  68.9031848  71.5923473 101.8370039  73.1695418  72.1136301  98.4203439
  72.4846456  72.4935203  97.8700472  73.2539268  72.7231628  99.1535386
  68.4707887  63.2157648 106.3421517  68.2268819  63.9699708 105.8055792
  68.7467818  63.5942996 107.1768764  70.4246350  69.7596260 105.0198782
  70.6363245  70.4028020 104.3433163  70.3776098  68.9258577 104.5520712
  68.0272579  62.3714081 101.9235354  67.1657058  62.6695335 102.2152092
  68.0535013  62.5884480 100.9916387  64.8434148  70.9156272  98.3309160
  65.3072494  71.1943975  97.5413782  64.5790946  70.0139716  98.1482251
  61.7358229  70.4627753 101.2688923  62.3059586  70.8915021 100.6306408
  62.3266341  70.1810338 101.9673109  63.7803034  67.0379424  95.1398725
  64.4827078  67.4900468  95.6072652  63.4483663  66.3963243  95.7678618
  62.2283396  65.6291181 109.5149935  61.5982056  66.3107461 109.7485331
  62.1219484  65.5174262 108.5703073  57.5228368  65.2962977 100.4415859
  56.7327422  65.5520505  99.9655969  58.0139616  66.1111314 100.5467899
  71.5392178  72.6368216 103.1921140  72.3609621  72.2348403 102.9103821
  71.5354581  72.5336450 104.1437255  59.4743114  65.6607556  97.3999335
  58.6774277  65.7726250  97.9182831  59.2468706  65.9994208  96.5340226
  65.3048781  72.1852259 105.3481850  65.3693214  72.6472666 106.1840022
  64.5959705  71.5549624 105.4764160  55.8066071  65.5493467 102.8730850
  56.0574110  66.4340477 103.1388425  56.3425620  65.3698069 102.1005941
  79.6298171  68.9806964  99.5406111  78.8761879  68.4114362  99.3850115
  79.7645712  68.9469629 100.4876746  65.0196799  73.8520367  95.2160830
  64.8842474  74.6971902  95.6445678  65.5606611  74.0539644  94.4526764
  61.5064138  59.9311946 111.8775186  61.1131084  59.3778145 112.5522830
  62.3230279  60.2422525 112.2681703  58.4726196  71.3695805  95.7888755
  58.9850717  72.1639055  95.9394320  59.1248909  70.6722095  95.7222357
  60.2821081  74.4861561  97.8711509  60.4587709  75.4079526  97.6832493
  61.0777914  74.1719980  98.3005888  64.4232099  61.3469825 109.4695442
  65.1641813  61.9476979 109.3899905  64.6550022  60.6047463 108.9113485
  59.5673438  66.5326193 107.7473672  59.4526953  65.6311450 108.0480771
  58.7117955  66.7789890 107.3958488  66.6465275  74.4743933 109.3461172
  66.2029129  73.6880312 109.0282077  67.3082489  74.6623084 108.6805063
  61.4052396  76.0039735 103.8721851  61.9559822  75.8756798 103.0998845
  60.5663872  76.3034624 103.5216744  68.7446513  74.7546733 107.3742574
  68.7264989  75.5755614 106.8822843  69.6666433  74.6300808 107.5992715
  65.2019567  72.2690862 108.2166082  65.7347904  71.5079151 107.9865390
  64.6733649  71.9764514 108.9590237  68.3689262  57.3750928 103.7459724
  68.0253532  58.2652570 103.6698834  68.7368225  57.1852586 102.8829309
  56.4375113  69.6984459  96.5648326  57.2750335  70.1081467  96.3482034
  56.6153381  68.7583901  96.5348520  68.3339545  67.3659540  92.2532159
  67.8186169  68.1364144  92.4920546  68.0616854  66.6924676  92.8765220
  65.9186656  62.2109240  97.3117397  65.0628253  61.8216091  97.1323036
  66.3313608  62.2901201  96.4517183  67.4485803  59.7455584 101.7108957
  66.9450598  59.7085719 100.8976762  67.7416410  60.6548326 101.7705614
  63.6928689  59.8294313 100.7175139  64.5581685  59.6337122 100.3581028
  63.7606198  59.6004665 101.6444496  73.3073819  70.1191894  94.1885332
  72.5303262  69.7803054  93.7440494  73.9865300  70.1244517  93.5140297
  68.1225848  65.2386632  94.0791940  67.8175984  65.5532781  94.9302083
  69.0756290  65.3168052  94.1219273  66.5672280  71.3976855  95.7284894
  66.0393642  70.6629615  95.4158132  66.0659783  72.1751531  95.4824862
  71.5465126  69.5925875 100.8451940  70.8888801  70.2825137 100.9332069
  72.3505525  69.9822307 101.1885927  61.2991008  62.0596521  98.0891506
  61.8734760  61.8371703  97.3564699  61.8861990  62.1285216  98.8420107
  70.3570585  67.9470248  98.8955882  70.8702467  68.5800240  99.3977592
  71.0071809  67.3471444  98.5299242  61.6260595  64.0900982  92.1087391
  60.7897907  64.4275669  92.4296666  61.4865365  63.9549962  91.1714528
  63.6013675  58.9337770  96.8166575  62.9478088  58.6186787  96.1923190
  63.5594150  58.3113511  97.5426398  64.7124880  69.2157065  88.7319867
  63.8051942  68.9846319  88.9311016  65.2095912  68.4194684  88.9193849
  67.6192959  77.9254572  91.6516553  66.9454658  78.2286269  92.2601511
  68.0058781  78.7283653  91.3022010  66.8351416  65.4219704 101.1414223
  65.9173977  65.6434651 100.9835911  67.2511559  65.4966014 100.2825930
  67.6186464  66.8211119  96.2716903  68.3658283  67.3332517  95.9624025
  67.8878053  66.4995172  97.1321296  65.8913114  69.3169660  93.2543857
  64.9824333  69.0328693  93.3516327  65.9208198  69.7368739  92.3947164
  71.1232381  72.9276250  97.0235025  70.6694708  72.0867159  97.0800215
  70.4926348  73.5637648  97.3609805  70.0665301  63.8568236  98.2535692
  69.3288058  63.3445622  98.5845935  70.3192074  63.4168617  97.4418969
  69.5665320  74.7652746  97.9584843  69.8588295  75.3257803  97.2397209
  70.0763941  75.0581307  98.7138002  70.1676928  56.6344488  98.8477462
  70.4735805  55.7741851  98.5603377  70.8929533  57.2262108  98.6476455
  56.4601284  67.0375174  97.2359059  56.2625684  66.4444535  96.5110126
  55.9047948  66.7327384  97.9534998  64.4398008  66.9298281  99.3553653
  64.4946618  65.9772117  99.2796129  63.6289210  67.0857720  99.8394951
  65.5889202  70.8578404  90.5931936  65.1508632  70.1414263  90.1337573
  66.3299642  71.0854519  90.0317027  62.3790368  65.5475340  97.1144031
  61.5658233  65.8469511  97.5209224  62.8749362  65.1531029  97.8318514
  64.5298946  75.5433097  99.0478296  64.4875124  75.7693944  98.1186828
  65.4461644  75.3096472  99.1964097  67.9764579  66.0117165 105.9458925
  68.3313967  66.2388638 106.8053391  68.6236711  66.3435542 105.3236181
  73.7062316  69.1335601  96.6508254  73.5680215  69.3237197  95.7229444
  73.3498535  69.8954984  97.1076306  61.8704443  63.1193696 102.7305266
  62.5103822  62.9782455 102.0328230  61.0381973  62.8328209 102.3543868
  73.7331696  71.2012128 101.6619526  74.1668203  71.1087417 102.5102580
  74.4463277  71.1769628 101.0239542  62.6464746  72.4196126  98.8440259
  63.4405345  71.9246447  98.6422834  61.9356439  71.8913989  98.4807964
  67.4659591  74.8014222 103.1952626  67.5196613  75.3705158 103.9630342
  66.5974372  74.9716107 102.8306664  58.9547510  66.5639208  94.9200012
  58.0245098  66.5023664  95.1369974  59.0504982  66.0415161  94.1236653
  58.8733059  63.0894021  97.5078253  59.1339876  64.0039354  97.3987414
  59.6950231  62.6218463  97.6574866  60.3457984  64.5031778 104.6777078
  61.0181038  64.2949140 104.0289727  59.5187771  64.3053864 104.2382310
  74.5947246  71.2435828 104.1952411  74.7883136  72.1481639 104.4411686
  74.4947864  70.7843248 105.0290996  66.2483556  61.1293719 106.6942739
  65.6011471  61.8283669 106.6007215  67.0184572  61.5629863 107.0618987
  69.6562354  71.3942571 109.7693292  69.5047861  71.1653123 108.8523376
  69.6467034  72.3513173 109.7824637  66.4247691  68.9674484 104.7539558
  67.3539751  69.1185644 104.5808526  66.0038721  69.0558505 103.8988205
  65.2236022  72.9925148 102.5238096  65.0847108  72.6243933 103.3964034
  64.4350619  73.5072788 102.3522054  65.8184174  78.0934245  93.8663632
  65.9935930  77.6222288  94.6809255  65.1316962  78.7200011  94.0944893
  66.7741238  72.3706751  99.9126934  66.4391070  72.3307521 100.8084584
  66.2745183  71.7051467  99.4397344  60.7485482  67.7774381 105.4379515
  60.6105279  67.0454620 106.0391054  61.6590405  67.6883281 105.1563703
  69.7100429  69.7162785  90.1863993  69.0929600  68.9909614  90.0897046
  69.2416918  70.4772146  89.8431068  63.3767782  67.4894340 104.9263195
  64.0867401  66.8487533 104.8849813  63.3337090  67.7407235 105.8489375
  71.3654561  74.4261694 107.8469774  71.3067107  73.7420914 107.1800357
  71.7674079  75.1680684 107.3950400  62.0896716  64.4759558 106.7458834
  61.5534073  64.0250297 107.3980430  61.5013425  64.6105467 106.0029298
  60.3845260  81.2423608 100.6403493  60.6241858  81.8742132 101.3182511
  59.5414456  80.8911648 100.9268852  61.4998975  63.9348210  89.3085298
  60.6228441  63.8137010  88.9447544  61.9756728  63.1434288  89.0564186
  71.3671968  72.3901278 106.0783753  70.4798747  72.0527199 106.2010152
  71.9370519  71.6584309 106.3152519  53.0201115  68.7225369  99.4026805
  53.7072155  68.4087099  98.8147820  52.8649244  69.6266734  99.1294056
  57.8235837  63.6115566 103.8311829  57.7394026  63.0041236 103.0962238
  57.0018544  64.1024584 103.8321325  64.8973122  77.0502730 103.0444997
  64.8243293  77.8557702 103.5564301  64.4550515  77.2494696 102.2193018
  64.6862901  76.2874500  96.5547818  63.9030423  76.8296180  96.6486043
  65.3855646  76.8048480  96.9542059  67.9959551  62.0969130  99.1982024
  68.4928251  61.3439092  98.8783094  67.2246533  62.1333446  98.6325233
  75.8489309  67.8009495 100.8400315  75.8379185  68.6834210 100.4694248
  74.9806688  67.4481046 100.6454852  67.3571805  76.9489564 105.2003155
  68.0699777  77.5837029 105.1279057  66.8661834  77.0453430 104.3843157
  69.0789332  70.8540817  96.7720447  68.1445611  70.9742279  96.6025151
  69.2566000  69.9513284  96.5080457  64.5794520  64.2386513  98.9253708
  64.2092308  63.6857553  99.6134614  65.0753612  63.6344646  98.3728708
  72.4661883  66.6958136  97.3070481  72.9322336  67.5286128  97.2330784
  72.9169384  66.2303118  98.0115740  62.4083719  74.6984008 106.0208726
  63.1093178  75.3320490 106.1738120  61.9378834  75.0398739 105.2604365
  70.5338114  73.0401957  94.3056633  70.8097958  72.9258552  95.2150507
  69.6642613  72.6419442  94.2668806  70.4378546  59.0638723 101.3461382
  69.5241626  59.2942950 101.5143589  70.8671648  59.1477167 102.1975415
  70.2085005  67.2528615 103.8461276  69.5556455  67.5004522 103.1913729
  70.5865384  66.4392753 103.5123754  67.1692178  77.2888308  97.9489447
  67.3514573  76.4709964  98.4117199  67.9925164  77.5056000  97.5114337
  67.5034344  76.2156493  95.2104495  68.0322110  75.7048948  94.5974657
  67.7662564  75.8999023  96.0750028  66.2572578  67.9948426 110.3327314
  65.5813215  67.8942555 111.0029689  67.0800211  67.8387640 110.7963311
  58.0051437  74.2320363 102.9539829  58.5904873  73.4864050 103.0867733
  57.8076275  74.5424319 103.8376493  60.8590092  77.2671610  97.9702271
  60.1900467  77.7517738  97.4866311  60.7202962  77.5140830  98.8845650
  52.5969091  66.8025963 101.6744272  52.6353191  66.2689553 102.4681390
  52.0909384  66.2761168 101.0555249  64.9995360  79.3015353 104.5684930
  65.5513668  79.4646975 105.3334015  65.3401554  79.8919791 103.8964954
  59.9759854  61.6490503 105.1706814  60.0401180  62.5105334 104.7584212
  59.9126974  61.0364505 104.4379173  59.4512126  63.7213636 108.8179849
  60.0784165  63.3390713 109.4317373  58.5940045  63.5027838 109.1835541
  69.8506235  74.1276611 110.4233584  70.3946139  74.7406569 109.9288539
  69.2693080  74.6856189 110.9400597  56.2277669  65.5290065  94.7498203
  56.5231110  64.6200743  94.6965257  55.3265705  65.5077804  94.4279206
  68.1363748  77.2497329 101.5548612  68.0114887  76.4487069 101.0459557
  68.7942839  77.7443522 101.0662582  59.7571916  63.6046062 100.7325752
  59.0358502  64.2182029 100.5933225  60.5465172  64.1403826 100.6542398
  70.1998656  75.0506349 103.1828162  69.2528992  74.9311700 103.1106489
  70.5481429  74.1628847 103.2654423  62.5598229  60.9400488 107.0066404
  63.0832631  61.1862785 107.7692713  62.3410563  61.7720523 106.5869541
  57.9565511  63.2104163  94.8737528  57.6278217  62.3301542  94.6912634
  58.3104881  63.1551831  95.7613918  67.2045089  74.8459065  99.3832514
  67.0570052  73.9175773  99.5640084  68.0298583  74.8679156  98.8989589
  61.0707334  63.4977132  95.2413006  61.4103406  64.0263054  94.5191615
  61.5179454  63.8357539  96.0171573  70.8079211  75.6687624 100.4697387
  71.7325759  75.4630485 100.3321838  70.6394515  75.4204025 101.3786728
  63.7650775  61.8814183 104.6916074  63.4247595  61.0821996 105.0936754
  63.0589781  62.1815894 104.1192907  64.4167246  58.9663496 103.1443397
  65.2393316  58.4923974 103.0222288  64.6605310  59.7453979 103.6442084
  63.0575481  61.9951754  93.4406299  63.7783843  62.3733007  92.9370016
  62.4340785  62.7140631  93.5441277  67.2006604  62.6996903  94.3764631
  67.4170218  63.5821541  94.0753459  66.7200671  62.3083116  93.6470273
  61.9405825  65.6582616 100.9535376  61.7950406  65.9722919 101.8459657
  61.4631029  66.2767517 100.4006274  63.8002208  62.6485164 101.0016265
  63.7863777  61.7526257 100.6648563  64.5174636  62.6555828 101.6354551
  65.6528339  63.0822504 103.0469393  65.3946117  64.0039575 103.0453723
  65.1213379  62.6852939 103.7369857  70.5974527  76.1873291  95.8259478
  70.7711405  75.6219714  95.0733331  71.0903419  76.9874186  95.6438968
  56.4151487  68.1987961 103.8923037  55.8704955  68.9747769 104.0243311
  57.2930837  68.5458765 103.7342158  63.2039104  61.5299544  96.2703836
  63.3255015  60.6016191  96.4694723  62.9141146  61.5438230  95.3582151
  66.0730294  59.2154455  99.4070555  66.0951991  59.2793788  98.4522535
  66.4898353  58.3758964  99.6011062  76.4513919  68.9509714  97.4449778
  76.8945065  68.2017040  97.0468901  75.5740429  68.9419851  97.0623510
  71.5849700  75.5040056  92.9256377  72.2800605  76.1246749  93.1443691
  71.9272850  74.6535407  93.2008754  57.2017509  67.3257857 106.7853194
  56.4599245  67.4740492 107.3717824  56.8810253  67.5866122 105.9219943
  73.4841123  72.9539761  94.4543707  74.0092447  73.2927034  93.7293027
  73.3963476  72.0186777  94.2706842  65.1461172  76.8673835 106.5833584
  65.4548298  76.6222982 107.4556283  65.9436654  77.0720474 106.0952454
  65.1681784  79.0211745  98.8138960  64.7286774  78.5288123  99.5071817
  65.9189901  78.4784712  98.5731036  57.6474123  75.2123286  98.8163589
  58.4732143  74.9127057  98.4362232  57.2968175  74.4430908  99.2653377
  62.6155656  74.5649754 100.8861262  61.9935665  73.9020459 100.5863490
  63.2860523  74.5910886 100.2034910  55.8482728  73.1309612  99.7752522
  55.0114636  72.7031786  99.5936523  55.8206373  73.3242055 100.7123313
  62.6880183  63.0431542 110.4793768  62.7368339  63.9193665 110.0971538
  63.2302698  62.5008935 109.9065411  73.1735029  73.5872665 109.7594905
  72.3830573  73.5696804 109.2199405  72.9368384  74.1260959 110.5143942
  73.2932904  70.4365131 107.0727634  73.3430909  70.2715139 108.0143157
  73.1846828  69.5692390 106.6825515  62.1769163  73.1153677  94.3619723
  62.3257283  73.7989142  93.7086395  62.9835606  73.0958767  94.8769178
  70.5836667  66.4196059 108.3886940  71.4846529  66.2802524 108.0970938
  70.6584641  66.5850514 109.3285118  64.9179472  63.7962914 107.2340127
  64.0482781  64.0896480 106.9622715  65.1538952  64.3803359 107.9547390
  74.7951101  72.8562073 107.3169655  74.5035909  73.2192054 108.1533116
  74.1823232  72.1429081 107.1382987  75.9946783  70.4214953  99.8372226
  76.8293675  70.8604757 100.0009786  76.1305912  69.9453606  99.0180471
  73.0438289  67.9794688 105.7849713  73.5192411  68.1722334 104.9768565
  72.1203855  68.0353873 105.5393097  59.9321796  69.1418855  95.3680792
  59.6867838  68.2381185  95.5661002  60.1017710  69.1436005  94.4260270
  67.6218506  60.0142531 104.7505547  68.1400450  60.7503558 104.4252036
  67.2673639  60.3206524 105.5852306  59.2017443  64.8747212  92.8666953
  58.5086688  64.9491567  92.2106989  58.9569195  64.1107556  93.3888470
  67.8731100  56.4342814 100.2706444  68.1532854  55.7666003 100.8966870
  68.6581707  56.6271909  99.7581108  65.6764568  75.6101808  91.8331470
  65.1038535  76.2291995  91.3801942  66.2497362  76.1601169  92.3671392
  71.7439958  64.8560448 104.0178019  72.6957381  64.9558545 104.0390243
  71.5743409  64.0638716 104.5276103  69.7654338  61.9416031 104.2037420
  69.1704270  62.2221044 103.5083908  69.4804034  62.4309932 104.9754161
  68.8961828  75.8938958  92.9640052  69.8292501  75.8284519  93.1672928
  68.8085041  76.7295225  92.5054585  71.5249845  75.2104828  89.9244000
  71.4463476  74.8764692  90.8179758  72.3459512  75.7026596  89.9235472
  74.2228036  68.0766567 103.1320319  74.1904356  67.1382568 103.3180002
  74.8328660  68.1550604 102.3986143  66.0611367  66.9462620  89.1747523
  67.0070472  66.8168828  89.2435941  65.6825612  66.2077282  89.6516951
  74.3722525  64.8677611 103.1778602  73.8561573  64.0836067 102.9908531
  75.2562473  64.5396327 103.3425121  72.0333251  58.6118626  99.1374414
  71.8358073  58.3033715 100.0217746  72.6432957  59.3380265  99.2672344
  80.0404586  69.1382574 102.2726355  80.7707974  68.8767862 102.8334059
  79.4311531  68.4011296 102.3128423  78.1219883  67.2790437 102.8700807
  77.3953047  67.1446402 102.2617298  77.7067170  67.5867265 103.6757525
  65.9450059  70.9980366 110.6348180  66.8653069  71.1758965 110.8288226
  65.9099642  70.0536412 110.4827879  64.2454284  64.8712597  89.1102408
  63.3385739  64.5745709  89.1865121  64.5230265  64.5742415  88.2436694
  55.1632224  66.1918960  99.5601454  54.8435009  65.3384268  99.2675828
  54.6165653  66.4067538 100.3159422  58.9412132  68.9081401 103.2770961
  59.1598142  69.8398509 103.2958995  59.3537906  68.5489376 104.0625765
  65.8616350  59.4149486  95.2646649  65.0517078  59.0696571  95.6401895
  66.5500767  59.1057030  95.8534261  67.7906898  58.4927533  96.8870946
  68.3437937  58.9122987  97.5460969  68.0276984  57.5663281  96.9293902
  63.8139997  64.4814607 112.6673710  63.7136724  65.4308964 112.5985801
  63.5961539  64.1532846 111.7949780  63.0153069  61.7299532  89.2514387
  63.8772233  62.0554430  89.5110204  63.2003413  60.9431028  88.7387453
  55.0320484  69.8121872 101.5294576  54.3383956  69.3975824 101.0164530
  55.7793475  69.8542408 100.9327995  71.1685705  60.6028058  96.3949610
  70.5884374  61.2612862  96.0127662  70.9021638  59.7805403  95.9837028
  69.6189272  60.0033116  98.5970930  70.1189050  60.1149651  97.7885249
  70.2624879  59.6994169  99.2371739  63.6771267  67.9111746 111.4838771
  63.1938349  68.7112106 111.6902660  63.7632206  67.9219691 110.5306215
  56.9457227  69.7440125  99.4060591  56.9227915  69.8427813  98.4542474
  57.2557863  70.5905276  99.7277757  59.6044605  71.8016280 103.5207205
  60.5587858  71.7700223 103.4537137  59.4057128  71.3406904 104.3357431
  60.1943987  70.3717396 106.0878003  61.0136876  70.8661475 106.1112840
  60.4680795  69.4549365 106.0595570  69.9510583  62.7628149  95.4505958
  69.0636438  63.0477799  95.2326153  70.3664572  62.6021912  94.6033235
  73.3025119  62.7874670  99.1660298  74.0785509  63.2771122  99.4384914
  72.5773253  63.2132724  99.6232167  75.7397678  63.5002289 100.2234238
  76.3342169  63.2598025  99.5127546  75.8124262  62.7809420 100.8507774
  57.9594834  77.3435900 100.5377403  57.8249302  76.5836301  99.9715401
  57.5426896  78.0676800 100.0706192  69.0953797  72.5272823  89.5453978
  69.7989647  72.7322826  90.1611634  68.3716445  73.0949585  89.8103062
  69.9251607  68.2782685  95.6656248  69.8686808  68.7351236  94.8263881
  70.4779949  67.5173369  95.4879091  73.7356413  64.0672417  96.4906368
  73.4793347  63.6669052  97.3214576  73.1109281  64.7816211  96.3656507
  78.0468751  66.8068490  98.9977659  77.4868309  66.8761679  99.7709221
  77.4412254  66.6309474  98.2777156  61.1163960  78.2405217 100.7495846
  60.9996344  79.1850649 100.6474536  60.2956406  77.9378778 101.1381645
  71.0040494  72.9655353  91.5952438  71.8386098  72.5336551  91.4129913
  70.8424837  72.7937366  92.5229333  70.6586386  69.4687466  92.9608778
  70.6035190  69.3031737  92.0197222  70.0332442  70.1763499  93.1170967
  55.4478901  64.7055530 106.7870200  56.0937765  64.1954484 107.2757425
  55.2396052  65.4424212 107.3613625  67.9732293  71.7736378 112.2862340
  68.8423453  71.9477030 111.9248975  67.4939045  72.5930795 112.1638070
  63.9682512  58.9695575  92.5394096  63.9561182  59.9137415  92.6962367
  64.8605934  58.7865720  92.2453557  62.1418474  78.8933479 103.9651774
  63.0445720  78.9257089 104.2818269  61.9155844  77.9633930 103.9798110
  63.8972076  77.6464465 100.6261853  62.9467707  77.6466327 100.5126225
  64.2004562  76.8997200 100.1097887  67.7834631  55.5638352  96.7940033
  67.0167027  55.0096838  96.9396715  68.1945336  55.6360220  97.6554184
  59.7876392  61.8523147 110.8845214  60.6507854  61.4959952 111.0948539
  59.2141803  61.5137042 111.5720618  79.6324769  83.4825004 101.6907615
  80.2703179  83.3631751 100.9870955  79.5145612  84.4305848 101.7495567
  76.4414475  83.4352432 101.6269140  76.1032987  83.3193497 100.7389675
  77.3104244  83.0343597 101.6070146  72.3001291  85.2887908  97.6166031
  71.7366156  85.1977845  96.8482318  72.1853686  84.4687813  98.0968523
  76.9234258  84.5887284 107.5855345  76.9122899  84.1940082 106.7135849
  77.0854898  83.8553356 108.1789117  69.8465723  86.7839100 100.4550251
  70.6387015  86.4429925 100.0396550  70.0862373  86.8934075 101.3752404
  77.8800850  88.9558876  92.9280496  77.2288830  89.5412956  92.5414509
  78.6745213  89.4865071  92.9875533  71.8056477  86.0448013  93.3267630
  72.5787353  85.4977000  93.1880506  72.1581876  86.9092262  93.5382091
  73.6441520  87.3724395 106.5334529  73.3531386  88.2770026 106.4181196
  74.2798504  87.4140923 107.2478599  74.5697726  84.7501244 103.1235889
  75.1661299  84.5257266 102.4092852  74.6272698  84.0085989 103.7261337
  74.1422755  82.2040679  90.9586080  74.3948275  81.6822201  90.1969543
  73.2047314  82.0406825  91.0612763  79.1866038  81.2076458  98.7660823
  79.9729127  80.7895881  98.4151240  79.4504742  82.1122550  98.9342471
  79.3576115  86.6449308  93.4649480  78.7221948  86.7183934  94.1770385
  79.0273521  87.2342907  92.7868559  84.5874465  81.1451691  99.6693802
  85.3199637  80.5750908  99.9031631  83.8313820  80.7573291 100.1100307
  73.8619044  84.1068785  93.1610455  73.7455302  83.4313689  93.8291539
  73.9721303  83.6201159  92.3442608  76.2050584  83.5678932  96.8657144
  75.8408792  83.0409553  97.5770066  77.0617700  83.1777401  96.6923629
  82.1099885  74.8573265 104.1288410  81.7783210  75.7268676 103.9049625
  81.5145498  74.5409549 104.8082441  75.8456071  78.5968832  91.8618493
  76.0130474  79.4649068  92.2288964  75.6553241  78.7596114  90.9379782
  78.6031405  87.0585811 103.5284323  78.3032128  87.9610850 103.4200130
  78.2582464  86.7917994 104.3805476  72.0543886  83.5099608  99.5621027
  71.1294383  83.3775822  99.7698719  72.3028299  84.2893827 100.0590970
  82.0028548  79.5768351 101.2081760  81.0945426  79.5083760 100.9140521
  81.9516144  80.0540296 102.0363586  75.8245292  81.0526490  92.8465159
  75.7044918  81.4983540  93.6850640  75.1297881  81.4011807  92.2878698
  69.4152697  83.1532881 100.3964816  69.5445078  83.4067360 101.3104228
  68.7350148  83.7460589 100.0769472  73.5852184  93.8230131  96.4955291
  73.5076214  94.7737956  96.5743771  72.9813828  93.4776004  97.1530217
  76.0769414  80.9957997 109.1516658  75.3002748  81.5551917 109.1419522
  76.7159977  81.4814780 109.6731528  83.8690195  77.7784789 102.9859634
  83.2264575  78.0717323 102.3399429  83.3645123  77.6637710 103.7912831
  81.5230358  81.5247963  93.6745493  82.4348215  81.7575349  93.4993191
  81.0140006  82.1085007  93.1120572  74.3315787  83.8043450 108.7134625
  75.0730471  84.3428494 108.4369448  73.6252772  84.4309739 108.8706176
  79.8071126  85.9472591 107.3106786  80.2154482  85.5055001 106.5661418
  79.0848388  85.3725218 107.5640979  76.1602196  80.8845197 104.6840343
  77.0063391  81.3084611 104.8274992  76.1000834  80.2278822 105.3778906
  80.1299941  86.5073781 101.0659075  79.5008803  86.6719495 100.3635143
  79.7425603  86.9215391 101.8370039  84.0089173  87.4428219  98.4203439
  83.3240211  87.8227120  97.8700472  84.0933022  88.0523546  99.1535386
  79.3101642  78.5449566 106.3421517  79.0662573  79.2991626 105.8055792
  79.5861572  78.9234913 107.1768764  81.2640104  85.0888178 105.0198782
  81.4757000  85.7319938 104.3433163  81.2169853  84.2550495 104.5520712
  78.8666333  77.7005999 101.9235354  78.0050812  77.9987252 102.2152092
  78.8928768  77.9176398 100.9916387  75.6827903  86.2448189  98.3309160
  76.1466248  86.5235892  97.5413782  75.4184701  85.3431634  98.1482251
  72.5751984  85.7919671 101.2688923  73.1453341  86.2206939 100.6306408
  73.1660096  85.5102255 101.9673109  74.6196789  82.3671342  95.1398725
  75.3220832  82.8192385  95.6072652  74.2877417  81.7255160  95.7678618
  73.0677150  80.9583098 109.5149935  72.4375811  81.6399379 109.7485331
  72.9613238  80.8466180 108.5703073  68.3622123  80.6254894 100.4415859
  67.5721177  80.8812423  99.9655969  68.8533370  81.4403232 100.5467899
  82.3785932  87.9660133 103.1921140  83.2003376  87.5640321 102.9103821
  82.3748335  87.8628368 104.1437255  70.3136868  80.9899474  97.3999335
  69.5168031  81.1018168  97.9182831  70.0862460  81.3286126  96.5340226
  76.1442536  87.5144177 105.3481850  76.2086968  87.9764584 106.1840022
  75.4353460  86.8841542 105.4764160  66.6459826  80.8785385 102.8730850
  66.8967864  81.7632395 103.1388425  67.1819374  80.6989986 102.1005941
  90.4691925  84.3098882  99.5406111  89.7155634  83.7406280  99.3850115
  90.6039467  84.2761546 100.4876746  75.8590553  89.1812284  95.2160830
  75.7236228  90.0263820  95.6445678  76.4000366  89.3831562  94.4526764
  72.3457893  75.2603864 111.8775186  71.9524839  74.7070063 112.5522830
  73.1624033  75.5714443 112.2681703  69.3119951  86.6987722  95.7888755
  69.8244471  87.4930973  95.9394320  69.9642664  86.0014013  95.7222357
  71.1214835  89.8153479  97.8711509  71.2981464  90.7371443  97.6832493
  71.9171669  89.5011898  98.3005888  75.2625854  76.6761743 109.4695442
  76.0035567  77.2768896 109.3899905  75.4943777  75.9339381 108.9113485
  70.4067192  81.8618110 107.7473672  70.2920707  80.9603368 108.0480771
  69.5511710  82.1081807 107.3958488  77.4859030  89.8035851 109.3461172
  77.0422884  89.0172229 109.0282077  78.1476243  89.9915001 108.6805063
  72.2446151  91.3331652 103.8721851  72.7953576  91.2048716 103.0998845
  71.4057627  91.6326541 103.5216744  79.5840268  90.0838651 107.3742574
  79.5658743  90.9047532 106.8822843  80.5060188  89.9592726 107.5992715
  76.0413322  87.5982780 108.2166082  76.5741659  86.8371068 107.9865390
  75.5127403  87.3056432 108.9590237  79.2083017  72.7042846 103.7459724
  78.8647286  73.5944488 103.6698834  79.5761980  72.5144504 102.8829309
  67.2768868  85.0276377  96.5648326  68.1144090  85.4373385  96.3482034
  67.4547135  84.0875819  96.5348520  79.1733300  82.6951457  92.2532159
  78.6579923  83.4656062  92.4920546  78.9010608  82.0216593  92.8765220
  76.7580411  77.5401158  97.3117397  75.9022007  77.1508008  97.1323036
  77.1707362  77.6193119  96.4517183  78.2879557  75.0747501 101.7108957
  77.7844353  75.0377636 100.8976762  78.5810164  75.9840244 101.7705614
  74.5322443  75.1586231 100.7175139  75.3975440  74.9629040 100.3581028
  74.5999952  74.9296583 101.6444496  84.1467574  85.4483812  94.1885332
  83.3697017  85.1094971  93.7440494  84.8259055  85.4536435  93.5140297
  78.9619603  80.5678549  94.0791940  78.6569738  80.8824698  94.9302083
  79.9150045  80.6459969  94.1219273  77.4066035  86.7268773  95.7284894
  76.8787396  85.9921532  95.4158132  76.9053537  87.5043449  95.4824862
  82.3858881  84.9217793 100.8451940  81.7282555  85.6117055 100.9332069
  83.1899280  85.3114225 101.1885927  72.1384762  77.3888439  98.0891506
  72.7128514  77.1663620  97.3564699  72.7255745  77.4577133  98.8420107
  81.1964339  83.2762166  98.8955882  81.7096221  83.9092158  99.3977592
  81.8465563  82.6763361  98.5299242  72.4654349  79.4192900  92.1087391
  71.6291662  79.7567586  92.4296666  72.3259119  79.2841880  91.1714528
  74.4407430  74.2629688  96.8166575  73.7871842  73.9478705  96.1923190
  74.3987904  73.6405428  97.5426398  75.5518635  84.5448983  88.7319867
  74.6445697  84.3138236  88.9311016  76.0489667  83.7486602  88.9193849
  78.4586714  93.2546490  91.6516553  77.7848412  93.5578187  92.2601511
  78.8452536  94.0575570  91.3022010  77.6745170  80.7511621 101.1414223
  76.7567732  80.9726568 100.9835911  78.0905314  80.8257932 100.2825930
  78.4580218  82.1503037  96.2716903  79.2052037  82.6624434  95.9624025
  78.7271808  81.8287090  97.1321296  76.7306868  84.6461578  93.2543857
  75.8218088  84.3620611  93.3516327  76.7601952  85.0660656  92.3947164
  81.9626136  88.2568167  97.0235025  81.5088463  87.4159077  97.0800215
  81.3320102  88.8929566  97.3609805  80.9059055  79.1860153  98.2535692
  80.1681812  78.6737539  98.5845935  81.1585829  78.7460535  97.4418969
  80.4059075  90.0944664  97.9584843  80.6982049  90.6549721  97.2397209
  80.9157696  90.3873225  98.7138002  81.0070683  71.9636405  98.8477462
  81.3129559  71.1033769  98.5603377  81.7323287  72.5554025  98.6476455
  67.2995039  82.3667092  97.2359059  67.1019438  81.7736453  96.5110126
  66.7441703  82.0619302  97.9534998  75.2791762  82.2590198  99.3553653
  75.3340372  81.3064035  99.2796129  74.4682964  82.4149637  99.8394951
  76.4282956  86.1870321  90.5931936  75.9902386  85.4706180  90.1337573
  77.1693397  86.4146436  90.0317027  73.2184122  80.8767258  97.1144031
  72.4051988  81.1761429  97.5209224  73.7143116  80.4822947  97.8318514
  75.3692700  90.8725015  99.0478296  75.3268879  91.0985861  98.1186828
  76.2855399  90.6388390  99.1964097  78.8158334  81.3409083 105.9458925
  79.1707722  81.5680556 106.8053391  79.4630465  81.6727459 105.3236181
  84.5456071  84.4627518  96.6508254  84.4073969  84.6529114  95.7229444
  84.1892290  85.2246901  97.1076306  72.7098197  78.4485614 102.7305266
  73.3497576  78.3074373 102.0328230  71.8775728  78.1620127 102.3543868
  84.5725450  86.5304045 101.6619526  85.0061957  86.4379335 102.5102580
  85.2857031  86.5061546 101.0239542  73.4858501  87.7488044  98.8440259
  74.2799099  87.2538364  98.6422834  72.7750193  87.2205907  98.4807964
  78.3053345  90.1306140 103.1952626  78.3590368  90.6997076 103.9630342
  77.4368127  90.3008025 102.8306664  69.7941264  81.8931126  94.9200012
  68.8638852  81.8315581  95.1369974  69.8898736  81.3707079  94.1236653
  69.7126813  78.4185939  97.5078253  69.9733631  79.3331272  97.3987414
  70.5343986  77.9510381  97.6574866  71.1851739  79.8323696 104.6777078
  71.8574792  79.6241058 104.0289727  70.3581525  79.6345782 104.2382310
  85.4341000  86.5727746 104.1952411  85.6276890  87.4773557 104.4411686
  85.3341618  86.1135165 105.0290996  77.0877311  76.4585637 106.6942739
  76.4405226  77.1575586 106.6007215  77.8578326  76.8921781 107.0618987
  80.4956109  86.7234489 109.7693292  80.3441615  86.4945041 108.8523376
  80.4860788  87.6805090 109.7824637  77.2641445  84.2966402 104.7539558
  78.1933505  84.4477561 104.5808526  76.8432475  84.3850422 103.8988205
  76.0629777  88.3217066 102.5238096  75.9240863  87.9535850 103.3964034
  75.2744373  88.8364705 102.3522054  76.6577929  93.4226162  93.8663632
  76.8329685  92.9514206  94.6809255  75.9710717  94.0491929  94.0944893
  77.6134992  87.6998669  99.9126934  77.2784825  87.6599439 100.8084584
  77.1138938  87.0343385  99.4397344  71.5879236  83.1066299 105.4379515
  71.4499034  82.3746538 106.0391054  72.4984159  83.0175199 105.1563703
  80.5494184  85.0454703  90.1863993  79.9323354  84.3201531  90.0897046
  80.0810672  85.8064063  89.8431068  74.2161537  82.8186258 104.9263195
  74.9261155  82.1779450 104.8849813  74.1730845  83.0699153 105.8489375
  82.2048315  89.7553611 107.8469774  82.1460862  89.0712832 107.1800357
  82.6067834  90.4972601 107.3950400  72.9290471  79.8051476 106.7458834
  72.3927828  79.3542214 107.3980430  72.3407179  79.9397385 106.0029298
  71.2239014  96.5715525 100.6403493  71.4635612  97.2034049 101.3182511
  70.3808211  96.2203565 100.9268852  72.3392730  79.2640127  89.3085298
  71.4622196  79.1428928  88.9447544  72.8150483  78.4726206  89.0564186
  82.2065723  87.7193195 106.0783753  81.3192501  87.3819117 106.2010152
  82.7764274  86.9876227 106.3152519  63.8594870  84.0517287  99.4026805
  64.5465910  83.7379017  98.8147820  63.7042998  84.9558652  99.1294056
  68.6629592  78.9407484 103.8311829  68.5787781  78.3333153 103.0962238
  67.8412298  79.4316502 103.8321325  75.7366876  92.3794648 103.0444997
  75.6637047  93.1849619 103.5564301  75.2944269  92.5786614 102.2193018
  75.5256656  91.6166418  96.5547818  74.7424178  92.1588098  96.6486043
  76.2249401  92.1340397  96.9542059  78.8353306  77.4261047  99.1982024
  79.3322005  76.6731010  98.8783094  78.0640287  77.4625364  98.6325233
  86.6883063  83.1301413 100.8400315  86.6772939  84.0126128 100.4694248
  85.8200443  82.7772964 100.6454852  78.1965560  92.2781482 105.2003155
  78.9093532  92.9128947 105.1279057  77.7055588  92.3745348 104.3843157
  79.9183086  86.1832734  96.7720447  78.9839365  86.3034197  96.6025151
  80.0959755  85.2805201  96.5080457  75.4188275  79.5678430  98.9253708
  75.0486062  79.0149471  99.6134614  75.9147367  78.9636564  98.3728708
  83.3055638  82.0250054  97.3070481  83.7716090  82.8578045  97.2330784
  83.7563138  81.5595035  98.0115740  73.2477473  90.0275925 106.0208726
  73.9486933  90.6612408 106.1738120  72.7772588  90.3690657 105.2604365
  81.3731869  88.3693875  94.3056633  81.6491713  88.2550470  95.2150507
  80.5036368  87.9711360  94.2668806  81.2772301  74.3930641 101.3461382
  80.3635380  74.6234868 101.5143589  81.7065402  74.4769085 102.1975415
  81.0478759  82.5820533 103.8461276  80.3950209  82.8296440 103.1913729
  81.4259139  81.7684671 103.5123754  78.0085933  92.6180226  97.9489447
  78.1908327  91.8001882  98.4117199  78.8318919  92.8347918  97.5114337
  78.3428098  91.5448411  95.2104495  78.8715865  91.0340866  94.5974657
  78.6056318  91.2290941  96.0750028  77.0966332  83.3240344 110.3327314
  76.4206969  83.2234473 111.0029689  77.9193966  83.1679557 110.7963311
  68.8445191  89.5612280 102.9539829  69.4298628  88.8155968 103.0867733
  68.6470030  89.8716237 103.8376493  71.6983846  92.5963528  97.9702271
  71.0294222  93.0809655  97.4866311  71.5596716  92.8432748  98.8845650
  63.4362846  82.1317880 101.6744272  63.4746945  81.5981471 102.4681390
  62.9303139  81.6053086 101.0555249  75.8389115  94.6307271 104.5684930
  76.3907423  94.7938893 105.3334015  76.1795308  95.2211709 103.8964954
  70.8153608  76.9782421 105.1706814  70.8794935  77.8397252 104.7584212
  70.7520728  76.3656423 104.4379173  70.2905881  79.0505554 108.8179849
  70.9177920  78.6682631 109.4317373  69.4333800  78.8319755 109.1835541
  67.0671423  80.8581983  94.7498203  67.3624865  79.9492661  94.6965257
  66.1659459  80.8369722  94.4279206  78.9757502  92.5789247 101.5548612
  78.8508642  91.7778987 101.0459557  79.6336593  93.0735440 101.0662582
  70.5965670  78.9337979 100.7325752  69.8752256  79.5473947 100.5933225
  71.3858926  79.4695744 100.6542398  81.0392411  90.3798267 103.1828162
  80.0922746  90.2603618 103.1106489  81.3875184  89.4920765 103.2654423
  73.3991984  76.2692406 107.0066404  73.9226386  76.5154702 107.7692713
  73.1804317  77.1012440 106.5869541  68.7959265  78.5396080  94.8737528
  68.4671971  77.6593459  94.6912634  69.1498636  78.4843749  95.7613918
  78.0438844  90.1750983  99.3832514  77.8963806  89.2467690  99.5640084
  78.8692337  90.1971074  98.8989589  71.9101088  78.8269050  95.2413006
  72.2497161  79.3554971  94.5191615  72.3573209  79.1649456  96.0171573
  81.6472966  90.9979542 100.4697387  82.5719513  90.7922403 100.3321838
  81.4788269  90.7495943 101.3786728  74.6044529  77.2106101 104.6916074
  74.2641349  76.4113914 105.0936754  73.8983535  77.5107812 104.1192907
  75.2561001  74.2955413 103.1443397  76.0787070  73.8215891 103.0222288
  75.4999064  75.0745897 103.6442084  73.8969235  77.3243672  93.4406299
  74.6177598  77.7024924  92.9370016  73.2734539  78.0432548  93.5441277
  78.0400358  78.0288821  94.3764631  78.2563973  78.9113459  94.0753459
  77.5594425  77.6375034  93.6470273  72.7799580  80.9874534 100.9535376
  72.6344160  81.3014837 101.8459657  72.3024783  81.6059434 100.4006274
  74.6395962  77.9777082 101.0016265  74.6257531  77.0818175 100.6648563
  75.3568391  77.9847746 101.6354551  76.4922093  78.4114422 103.0469393
  76.2339871  79.3331493 103.0453723  75.9607134  78.0144857 103.7369857
  81.4368282  91.5165209  95.8259478  81.6105159  90.9511632  95.0733331
  81.9297173  92.3166104  95.6438968  67.2545242  83.5279878 103.8923037
  66.7098710  84.3039686 104.0243311  68.1324592  83.8750683 103.7342158
  74.0432858  76.8591462  96.2703836  74.1648770  75.9308108  96.4694723
  73.7534901  76.8730148  95.3582151  76.9124049  74.5446373  99.4070555
  76.9345746  74.6085706  98.4522535  77.3292108  73.7050881  99.6011062
  87.2907673  84.2801632  97.4449778  87.7338819  83.5308957  97.0468901
  86.4134183  84.2711768  97.0623510  82.4243454  90.8331974  92.9256377
  83.1194359  91.4538666  93.1443691  82.7666605  89.9827325  93.2008754
  68.0411264  82.6549775 106.7853194  67.2993000  82.8032410 107.3717824
  67.7204008  82.9158040 105.9219943  84.3234878  88.2831679  94.4543707
  84.8486202  88.6218952  93.7293027  84.2357230  87.3478694  94.2706842
  75.9854926  92.1965753 106.5833584  76.2942053  91.9514900 107.4556283
  76.7830408  92.4012391 106.0952454  76.0075538  94.3503662  98.8138960
  75.5680529  93.8580041  99.5071817  76.7583655  93.8076630  98.5731036
  68.4867877  90.5415203  98.8163589  69.3125897  90.2418975  98.4362232
  68.1361929  89.7722826  99.2653377  73.4549410  89.8941671 100.8861262
  72.8329420  89.2312376 100.5863490  74.1254277  89.9202803 100.2034910
  66.6876482  88.4601530  99.7752522  65.8508391  88.0323704  99.5936523
  66.6600128  88.6533973 100.7123313  73.5273938  78.3723459 110.4793768
  73.5762093  79.2485582 110.0971538  74.0696452  77.8300853 109.9065411
  84.1326659  85.7657049 107.0727634  84.1824664  85.6007057 108.0143157
  84.0240582  84.8984308 106.6825515  73.0162917  88.4445595  94.3619723
  73.1651038  89.1281059  93.7086395  73.8229361  88.4250685  94.8769178
  81.4230421  81.7487977 108.3886940  82.3240284  81.6094442 108.0970938
  81.4978396  81.9142432 109.3285118  75.7573226  79.1254832 107.2340127
  74.8876536  79.4188398 106.9622715  75.9932707  79.7095277 107.9547390
  86.8340538  85.7506870  99.8372226  87.6687429  86.1896674 100.0009786
  86.9699667  85.2745524  99.0180471  83.8832044  83.3086605 105.7849713
  84.3586165  83.5014252 104.9768565  82.9597609  83.3645791 105.5393097
  70.7715550  84.4710772  95.3680792  70.5261592  83.5673102  95.5661002
  70.9411465  84.4727923  94.4260270  78.4612260  75.3434449 104.7505547
  78.9794204  76.0795476 104.4252036  78.1067393  75.6498442 105.5852306
  70.0411198  80.2039130  92.8666953  69.3480443  80.2783485  92.2106989
  69.7962950  79.4399474  93.3888470  78.7124854  71.7634731 100.2706444
  78.9926608  71.0957920 100.8966870  79.4975461  71.9563827  99.7581108
  76.5158323  90.9393725  91.8331470  75.9432290  91.5583912  91.3801942
  77.0891117  91.4893087  92.3671392  82.5833713  80.1852365 104.0178019
  83.5351136  80.2850463 104.0390243  82.4137163  79.3930634 104.5276103
  80.6048092  77.2707949 104.2037420  80.0098024  77.5512961 103.5083908
  80.3197789  77.7601849 104.9754161  79.7355583  91.2230875  92.9640052
  80.6686256  91.1576437  93.1672928  79.6478796  92.0587142  92.5054585
  82.3643599  90.5396746  89.9244000  82.2857231  90.2056609  90.8179758
  83.1853266  91.0318514  89.9235472  85.0621791  83.4058485 103.1320319
  85.0298111  82.4674486 103.3180002  85.6722414  83.4842522 102.3986143
  76.9005121  82.2754538  89.1747523  77.8464226  82.1460746  89.2435941
  76.5219366  81.5369200  89.6516951  85.2116279  80.1969528 103.1778602
  84.6955328  79.4127985 102.9908531  86.0956228  79.8688245 103.3425121
  82.8727006  73.9410544  99.1374414  82.6751827  73.6325632 100.0217746
  83.4826712  74.6672183  99.2672344  90.8798340  84.4674492 102.2726355
  91.6101729  84.2059780 102.8334059  90.2705286  83.7303214 102.3128423
  88.9613638  82.6082354 102.8700807  88.2346801  82.4738319 102.2617298
  88.5460924  82.9159183 103.6757525  76.7843814  86.3272284 110.6348180
  77.7046823  86.5050883 110.8288226  76.7493397  85.3828329 110.4827879
  75.0848039  80.2004514  89.1102408  74.1779494  79.9037627  89.1865121
  75.3624020  79.9034332  88.2436694  66.0025979  81.5210878  99.5601454
  65.6828763  80.6676186  99.2675828  65.4559407  81.7359456 100.3159422
  69.7805886  84.2373319 103.2770961  69.9991896  85.1690427 103.2958995
  70.1931660  83.8781293 104.0625765  76.7010104  74.7441404  95.2646649
  75.8910833  74.3988489  95.6401895  77.3894521  74.4348948  95.8534261
  78.6300653  73.8219451  96.8870946  79.1831691  74.2414904  97.5460969
  78.8670739  72.8955199  96.9293902  74.6533752  79.8106525 112.6673710
  74.5530479  80.7600882 112.5985801  74.4355294  79.4824763 111.7949780
  73.8546823  77.0591450  89.2514387  74.7165987  77.3846348  89.5110204
  74.0397167  76.2722946  88.7387453  65.8714239  85.1413789 101.5294576
  65.1777710  84.7267742 101.0164530  66.6187230  85.1834326 100.9327995
  82.0079460  75.9319976  96.3949610  81.4278129  76.5904780  96.0127662
  81.7415392  75.1097321  95.9837028  80.4583026  75.3325034  98.5970930
  80.9582804  75.4441568  97.7885249  81.1018634  75.0286087  99.2371739
  74.5165022  83.2403663 111.4838771  74.0332104  84.0404024 111.6902660
  74.6025961  83.2511608 110.5306215  67.7850981  85.0732043  99.4060591
  67.7621670  85.1719730  98.4542474  68.0951618  85.9197194  99.7277757
  70.4438359  87.1308198 103.5207205  71.3981613  87.0992140 103.4537137
  70.2450883  86.6698822 104.3357431  71.0337741  85.7009314 106.0878003
  71.8530630  86.1953393 106.1112840  71.3074549  84.7841282 106.0595570
  80.7904338  78.0920066  95.4505958  79.9030193  78.3769717  95.2326153
  81.2058327  77.9313830  94.6033235  84.1418874  78.1166587  99.1660298
  84.9179264  78.6063040  99.4384914  83.4167008  78.5424642  99.6232167
  86.5791432  78.8294207 100.2234238  87.1735923  78.5889943  99.5127546
  86.6518016  78.1101337 100.8507774  68.7988588  92.6727818 100.5377403
  68.6643056  91.9128218  99.9715401  68.3820650  93.3968717 100.0706192
  79.9347551  87.8564741  89.5453978  80.6383401  88.0614744  90.1611634
  79.2110200  88.4241503  89.8103062  80.7645361  83.6074602  95.6656248
  80.7080563  84.0643154  94.8263881  81.3173704  82.8465287  95.4879091
  84.5750167  79.3964334  96.4906368  84.3187102  78.9960970  97.3214576
  83.9503035  80.1108128  96.3656507  88.8862505  82.1360408  98.9977659
  88.3262063  82.2053597  99.7709221  88.2806009  81.9601392  98.2777156
  71.9557714  93.5697135 100.7495846  71.8390098  94.5142567 100.6474536
  71.1350160  93.2670696 101.1381645  81.8434249  88.2947270  91.5952438
  82.6779852  87.8628469  91.4129913  81.6818591  88.1229284  92.5229333
  81.4980141  84.7979384  92.9608778  81.4428945  84.6323655  92.0197222
  80.8726196  85.5055417  93.1170967  66.2872656  80.0347448 106.7870200
  66.9331519  79.5246402 107.2757425  66.0789807  80.7716130 107.3613625
  74.8076266  74.2987493  92.5394096  74.7954936  75.2429333  92.6962367
  75.6999688  74.1157638  92.2453557  72.9812228  94.2225397 103.9651774
  73.8839475  94.2549007 104.2818269  72.7549598  93.2925847 103.9798110
  74.7365830  92.9756383 100.6261853  73.7861461  92.9758245 100.5126225
  75.0398316  92.2289118 100.1097887  78.6228386  70.8930269  96.7940033
  77.8560781  70.3388756  96.9396715  79.0339091  70.9652138  97.6554184
  70.6270147  77.1815065 110.8845214  71.4901608  76.8251870 111.0948539
  70.0535557  76.8428960 111.5720618  83.1395046 100.6179826  97.6166031
  82.5759911 100.5269763  96.8482318  83.0247441  99.7979730  98.0968523
  80.6859478 102.1131018 100.4550251  81.4780769 101.7721842 100.0396550
  80.9256128 102.2225993 101.3752404  88.7194604 104.2850794  92.9280496
  88.0682584 104.8704874  92.5414509  89.5138967 104.8156989  92.9875533
  82.6450231 101.3739931  93.3267630  83.4181107 100.8268918  93.1880506
  82.9975630 102.2384180  93.5382091  84.9816509  97.5332597  90.9586080
  85.2342030  97.0114118  90.1969543  84.0441068  97.3698742  91.0612763
  90.0259792  96.5368375  98.7660823  90.8122881  96.1187798  98.4151240
  90.2898496  97.4414467  98.9342471  90.1969869 101.9741226  93.4649480
  89.5615702 102.0475852  94.1770385  89.8667276 102.5634824  92.7868559
  84.7012798  99.4360703  93.1610455  84.5849056  98.7605606  93.8291539
  84.8115058  98.9493077  92.3442608  87.0444339  98.8970850  96.8657144
  86.6802546  98.3701471  97.5770066  87.9011455  98.5069319  96.6923629
  86.6849826  93.9260750  91.8618493  86.8524228  94.7940986  92.2288964
  86.4946995  94.0888031  90.9379782  82.8937641  98.8391525  99.5621027
  81.9688137  98.7067740  99.7698719  83.1422054  99.6185745 100.0590970
  86.6639047  96.3818407  92.8465159  86.5438672  96.8275458  93.6850640
  85.9691635  96.7303725  92.2878698  80.2546452  98.4824799 100.3964816
  80.3838833  98.7359278 101.3104228  79.5743903  99.0752507 100.0769472
  92.3624113  96.8539880  93.6745493  93.2741969  97.0867267  93.4993191
  91.8533760  97.4376925  93.1120572  89.7060088  93.0297916 101.9235354
  88.8444567  93.3279170 102.2152092  89.7322522  93.2468315 100.9916387
  86.5221657 101.5740107  98.3309160  86.9860003 101.8527810  97.5413782
  86.2578455 100.6723551  98.1482251  85.4590543  97.6963259  95.1398725
  86.1614587  98.1484303  95.6072652  85.1271172  97.0547078  95.7678618
  79.2015877  95.9546812 100.4415859  78.4114931  96.2104340  99.9655969
  79.6927125  96.7695150 100.5467899  81.1530623  96.3191391  97.3999335
  80.3561786  96.4310085  97.9182831  80.9256215  96.6578043  96.5340226
  77.4853580  96.2077302 102.8730850  77.7361619  97.0924312 103.1388425
  78.0213129  96.0281904 102.1005941  86.6984308 104.5104202  95.2160830
  86.5629983 105.3555738  95.6445678  87.2394120 104.7123480  94.4526764
  80.1513705 102.0279640  95.7888755  80.6638226 102.8222890  95.9394320
  80.8036418 101.3305930  95.7222357  81.9608590 105.1445396  97.8711509
  82.1375218 106.0663361  97.6832493  82.7565423 104.8303815  98.3005888
  90.0476771  88.0334764 103.7459724  89.7041041  88.9236405 103.6698834
  90.4155734  87.8436421 102.8829309  78.1162622 100.3568294  96.5648326
  78.9537844 100.7665303  96.3482034  78.2940890  99.4167736  96.5348520
  90.0127054  98.0243375  92.2532159  89.4973678  98.7947980  92.4920546
  89.7404363  97.3508511  92.8765220  87.5974165  92.8693076  97.3117397
  86.7415762  92.4799926  97.1323036  88.0101117  92.9485036  96.4517183
  89.1273312  90.4039419 101.7108957  88.6238107  90.3669554 100.8976762
  89.4203919  91.3132162 101.7705614  85.3716198  90.4878149 100.7175139
  86.2369194  90.2920957 100.3581028  85.4393707  90.2588500 101.6444496
  94.9861328 100.7775730  94.1885332  94.2090771 100.4386889  93.7440494
  95.6652809 100.7828353  93.5140297  89.8013357  95.8970467  94.0791940
  89.4963493  96.2116616  94.9302083  90.7543799  95.9751887  94.1219273
  88.2459789 102.0560690  95.7284894  87.7181151 101.3213450  95.4158132
  87.7447292 102.8335367  95.4824862  82.9778517  92.7180357  98.0891506
  83.5522269  92.4955538  97.3564699  83.5649499  92.7869051  98.8420107
  83.3048104  94.7484818  92.1087391  82.4685416  95.0859504  92.4296666
  83.1652874  94.6133797  91.1714528  85.2801184  89.5921605  96.8166575
  84.6265597  89.2770623  96.1923190  85.2381659  88.9697346  97.5426398
  86.3912389  99.8740901  88.7319867  85.4839451  99.6430154  88.9311016
  86.8883421  99.0778520  88.9193849  89.2980468 108.5838408  91.6516553
  88.6242167 108.8870105  92.2601511  89.6846290 109.3867488  91.3022010
  88.5138925  96.0803539 101.1414223  87.5961486  96.3018486 100.9835911
  88.9299068  96.1549849 100.2825930  89.2973973  97.4794955  96.2716903
  90.0445792  97.9916352  95.9624025  89.5665562  97.1579007  97.1321296
  87.5700623  99.9753495  93.2543857  86.6611842  99.6912528  93.3516327
  87.5995707 100.3952574  92.3947164  91.7452810  94.5152071  98.2535692
  91.0075567  94.0029457  98.5845935  91.9979583  94.0752453  97.4418969
  91.8464437  87.2928323  98.8477462  92.1523314  86.4325686  98.5603377
  92.5717042  87.8845943  98.6476455  78.1388793  97.6959010  97.2359059
  77.9413193  97.1028370  96.5110126  77.5835457  97.3911220  97.9534998
  86.1185517  97.5882116  99.3553653  86.1734127  96.6355952  99.2796129
  85.3076719  97.7441555  99.8394951  87.2676711 101.5162239  90.5931936
  86.8296140 100.7998098  90.1337573  88.0087151 101.7438354  90.0317027
  84.0577877  96.2059176  97.1144031  83.2445742  96.5053346  97.5209224
  84.5536871  95.8114865  97.8318514  83.5491951  93.7777531 102.7305266
  84.1891331  93.6366290 102.0328230  82.7169482  93.4912045 102.3543868
  84.3252255 103.0779962  98.8440259  85.1192854 102.5830282  98.6422834
  83.6143948 102.5497825  98.4807964  80.6335019  97.2223043  94.9200012
  79.7032607  97.1607499  95.1369974  80.7292491  96.6998996  94.1236653
  80.5520568  93.7477856  97.5078253  80.8127385  94.6623190  97.3987414
  81.3737740  93.2802299  97.6574866  82.0245493  95.1615613 104.6777078
  82.6968547  94.9532976 104.0289727  81.1975280  94.9637699 104.2382310
  87.4971683 108.7518080  93.8663632  87.6723439 108.2806123  94.6809255
  86.8104471 109.3783846  94.0944893  91.3887938 100.3746621  90.1863993
  90.7717109  99.6493449  90.0897046  90.9204427 101.1355981  89.8431068
  83.1786484  94.5932045  89.3085298  82.3015950  94.4720846  88.9447544
  83.6544237  93.8018123  89.0564186  74.6988624  99.3809205  99.4026805
  75.3859664  99.0670935  98.8147820  74.5436753 100.2850569  99.1294056
  79.5023346  94.2699401 103.8311829  79.4181535  93.6625071 103.0962238
  78.6806053  94.7608420 103.8321325  89.6747060  92.7552965  99.1982024
  90.1715760  92.0022927  98.8783094  88.9034042  92.7917282  98.6325233
  90.7576841 101.5124652  96.7720447  89.8233120 101.6326115  96.6025151
  90.9353509 100.6097119  96.5080457  86.2582029  94.8970348  98.9253708
  85.8879817  94.3441388  99.6134614  86.7541121  94.2928481  98.3728708
  94.1449392  97.3541971  97.3070481  94.6109844  98.1869963  97.2330784
  94.5956893  96.8886953  98.0115740  92.2125623 103.6985793  94.3056633
  92.4885467 103.5842387  95.2150507  91.3430122 103.3003278  94.2668806
  92.1166055  89.7222558 101.3461382  91.2029135  89.9526785 101.5143589
  92.5459156  89.8061002 102.1975415  74.2756600  97.4609798 101.6744272
  74.3140700  96.9273389 102.4681390  73.7696893  96.9345004 101.0555249
  81.6547363  92.3074339 105.1706814  81.7188689  93.1689170 104.7584212
  81.5914483  91.6948340 104.4379173  77.9065178  96.1873900  94.7498203
  78.2018619  95.2784579  94.6965257  77.0053214  96.1661640  94.4279206
  81.4359425  94.2629897 100.7325752  80.7146011  94.8765865 100.5933225
  82.2252681  94.7987662 100.6542398  79.6353020  93.8687998  94.8737528
  79.3065726  92.9885377  94.6912634  79.9892390  93.8135667  95.7613918
  82.7494843  94.1560968  95.2413006  83.0890915  94.6846889  94.5191615
  83.1966963  94.4941374  96.0171573  85.4438284  92.5398018 104.6916074
  85.1035104  91.7405832 105.0936754  84.7377290  92.8399729 104.1192907
  86.0954755  89.6247331 103.1443397  86.9180825  89.1507809 103.0222288
  86.3392819  90.4037815 103.6442084  84.7362990  92.6535589  93.4406299
  85.4571352  93.0316842  92.9370016  84.1128294  93.3724466  93.5441277
  88.8794113  93.3580738  94.3764631  89.0957727  94.2405376  94.0753459
  88.3988180  92.9666952  93.6470273  83.6193334  96.3166452 100.9535376
  83.4737915  96.6306755 101.8459657  83.1418538  96.9351352 100.4006274
  85.4789717  93.3069000 101.0016265  85.4651286  92.4110093 100.6648563
  86.1962145  93.3139663 101.6354551  87.3315848  93.7406340 103.0469393
  87.0733626  94.6623410 103.0453723  86.8000888  93.3436774 103.7369857
  78.0938996  98.8571796 103.8923037  77.5492464  99.6331604 104.0243311
  78.9718346  99.2042600 103.7342158  84.8826613  92.1883380  96.2703836
  85.0042524  91.2600026  96.4694723  84.5928655  92.2022066  95.3582151
  87.7517803  89.8738290  99.4070555  87.7739500  89.9377623  98.4522535
  88.1685862  89.0342799  99.6011062  93.2637209 106.1623891  92.9256377
  93.9588114 106.7830584  93.1443691  93.6060359 105.3119242  93.2008754
  95.1628632 103.6123597  94.4543707  95.6879956 103.9510870  93.7293027
  95.0750985 102.6770612  94.2706842  79.3261632 105.8707121  98.8163589
  80.1519652 105.5710893  98.4362232  78.9755684 105.1014743  99.2653377
  77.5270237 103.7893447  99.7752522  76.6902145 103.3615622  99.5936523
  77.4993882 103.9825891 100.7123313  83.8556672 103.7737512  94.3619723
  84.0044792 104.4572977  93.7086395  84.6623115 103.7542603  94.8769178
  81.6109305  99.8002690  95.3680792  81.3655347  98.8965020  95.5661002
  81.7805219  99.8019841  94.4260270  80.8804952  95.5331048  92.8666953
  80.1874197  95.6075403  92.2106989  80.6356704  94.7691391  93.3888470
  89.5518609  87.0926649 100.2706444  89.8320363  86.4249838 100.8966870
  90.3369216  87.2855745  99.7581108  87.3552077 106.2685643  91.8331470
  86.7826044 106.8875830  91.3801942  87.9284871 106.8185005  92.3671392
  90.5749337 106.5522793  92.9640052  91.5080010 106.4868355  93.1672928
  90.4872550 107.3879060  92.5054585  93.2037354 105.8688663  89.9244000
  93.1250985 105.5348527  90.8179758  94.0247021 106.3610431  89.9235472
  87.7398876  97.6046456  89.1747523  88.6857981  97.4752664  89.2435941
  87.3613121  96.8661118  89.6516951  93.7120760  89.2702462  99.1374414
  93.5145582  88.9617550 100.0217746  94.3220466  89.9964101  99.2672344
  85.9241793  95.5296432  89.1102408  85.0173248  95.2329545  89.1865121
  86.2017774  95.2326250  88.2436694  76.8419733  96.8502795  99.5601454
  76.5222518  95.9968104  99.2675828  76.2953162  97.0651374 100.3159422
  87.5403859  90.0733322  95.2646649  86.7304587  89.7280407  95.6401895
  88.2288276  89.7640866  95.8534261  89.4694407  89.1511369  96.8870946
  90.0225446  89.5706822  97.5460969  89.7064493  88.2247117  96.9293902
  84.6940578  92.3883367  89.2514387  85.5559742  92.7138266  89.5110204
  84.8790922  91.6014863  88.7387453  76.7107993 100.4705707 101.5294576
  76.0171465 100.0559660 101.0164530  77.4580984 100.5126243 100.9327995
  92.8473214  91.2611894  96.3949610  92.2671883  91.9196698  96.0127662
  92.5809147  90.4389238  95.9837028  91.2976781  90.6616951  98.5970930
  91.7976559  90.7733486  97.7885249  91.9412388  90.3578004  99.2371739
  78.6244736 100.4023961  99.4060591  78.6015424 100.5011648  98.4542474
  78.9345372 101.2489112  99.7277757  91.6298092  93.4211984  95.4505958
  90.7423947  93.7061635  95.2326153  92.0452081  93.2605748  94.6033235
  94.9812628  93.4458505  99.1660298  95.7573018  93.9354958  99.4384914
  94.2560762  93.8716559  99.6232167  90.7741306 103.1856659  89.5453978
  91.4777156 103.3906661  90.1611634  90.0503954 103.7533421  89.8103062
  91.6039116  98.9366520  95.6656248  91.5474317  99.3935071  94.8263881
  92.1567458  98.1757205  95.4879091  95.4143922  94.7256252  96.4906368
  95.1580856  94.3252888  97.3214576  94.7896790  95.4400046  96.3656507
  92.6828003 103.6239188  91.5952438  93.5173607 103.1920386  91.4129913
  92.5212346 103.4521202  92.5229333  92.3373895 100.1271301  92.9608778
  92.2822699  99.9615573  92.0197222  91.7119950 100.8347334  93.1170967
  85.6470021  89.6279410  92.5394096  85.6348690  90.5721250  92.6962367
  86.5393443  89.4449556  92.2453557  89.4622140  86.2222187  96.7940033
  88.6954536  85.6680674  96.9396715  89.8732845  86.2944056  97.6554184
  94.0180239 109.9223963  89.3085298  93.1409705 109.8012764  88.9447544
  94.4937992 109.1310041  89.0564186  96.7635548 110.8588350  89.1102408
  95.8567003 110.5621462  89.1865121  97.0411529 110.5618168  88.2436694
  95.5334332 107.7175285  89.2514387  96.3953496 108.0430183  89.5110204
  95.7184676 106.9306781  88.7387453  96.4863775 104.9571328  92.5394096
  96.4742445 105.9013168  92.6962367  97.3787197 104.7741473  92.2453557
  36.2749752  -0.8280544  88.4152922  36.9128162  -0.9473797  87.7116262
  36.1570595   0.1200300  88.4740874  28.9426274   0.9782360  84.3411337
  28.3791140   0.8872297  83.5727625  28.8278669   0.1582265  84.8213830
  34.5225833   4.6453328  79.6525802  33.8713813   5.2307408  79.2659816
  35.3170196   5.1759523  79.7120840  28.4481460   1.7342465  80.0512937
  29.2212336   1.1871452  79.9125812  28.8006859   2.5986714  80.2627398
  30.7847738  -2.1064869  77.6831386  31.0373259  -2.6283348  76.9214849
  29.8472297  -2.2698723  77.7858070  35.8291021  -3.1029091  85.4906130
  36.6154110  -3.5209667  85.1396547  36.0929725  -2.1982998  85.6587778
  36.0001098   2.3343760  80.1894787  35.3646931   2.4078386  80.9015691
  35.6698505   2.9237359  79.5113866  41.2299448  -3.1653857  86.3939108
  41.9624620  -3.7354640  86.6276938  40.4738804  -3.5532257  86.8345614
  30.5044027  -0.2036763  79.8855761  30.3880285  -0.8791860  80.5536846
  30.6146287  -0.6904389  79.0687915  32.8475568  -0.7426616  83.5902451
  32.4833775  -1.2695995  84.3015372  33.7042684  -1.1328147  83.4168936
  32.4670276  -3.2579059  79.5710466  32.3469901  -2.8122008  80.4095946
  31.7722864  -2.9093741  79.0124004  30.2277168   9.5124583  83.2200597
  30.1501197  10.4632408  83.2989078  29.6238811   9.1670456  83.8775524
  38.1655342  -2.7857585  80.3990800  39.0773198  -2.5530199  80.2238498
  37.6564989  -2.2020541  79.8365879  36.7724924   2.1968233  87.7904382
  36.1433787   2.3613947  87.0880449  36.3850586   2.6109843  88.5615346
  40.6514156   3.1322671  85.1448745  39.9665194   3.5121572  84.5945779
  40.7358005   3.7417998  85.8780693  32.3252886   1.9342641  85.0554467
  32.7891232   2.2130344  84.2659089  32.0609684   1.0326086  84.8727557
  31.2621772  -1.9434207  81.8644032  31.9645815  -1.4913163  82.3317958
  30.9302401  -2.5850388  82.4923925  39.0210916   3.6554585  89.9166446
  39.8428359   3.2534773  89.6349128  39.0173318   3.5522819  90.8682562
  47.1116909  -0.0006666  86.2651418  46.3580617  -0.5699268  86.1095422
  47.2464450  -0.0344002  87.2122052  32.5015537   4.8706736  81.9406137
  32.3661211   5.7158272  82.3690985  33.0425349   5.0726014  81.1772071
  25.9544934   2.3882174  82.5134062  26.4669455   3.1825424  82.6639627
  26.6067647   1.6908465  82.4467664  27.7639819   5.5047930  84.5956815
  27.9406447   6.4265895  84.4077799  28.5596652   5.1906350  85.0251195
  35.8158283  -1.6154091  78.9777466  35.3004906  -0.8449486  79.2165853
  35.5435591  -2.2888955  79.6010527  40.7892557   1.1378264  80.9130639
  40.0122000   0.7989423  80.4685801  41.4684038   1.1430887  80.2385604
  35.6044586  -3.7426999  80.8037247  35.2994722  -3.4280850  81.6547390
  36.5575028  -3.6645579  80.8464580  34.0491018   2.4163225  82.4530201
  33.5212380   1.6815984  82.1403438  33.5478521   3.1937901  82.2070169
  39.0283864   0.6112245  87.5697247  38.3707538   1.3011506  87.6577376
  39.8324263   1.0008677  87.9131233  37.8389323  -1.0343382  85.6201189
  38.3521205  -0.4013390  86.1222899  38.4890547  -1.6342187  85.2544549
  32.1943618   0.2343435  75.4565174  31.2870680   0.0032688  75.6556323
  32.6914650  -0.5618946  75.6439155  35.1011697   8.9440942  78.3761860
  34.4273396   9.2472639  78.9846818  35.4877519   9.7470022  78.0267317
  35.1005201  -2.1602511  82.9962210  35.8477020  -1.6481114  82.6869332
  35.3696791  -2.4818458  83.8566603  33.3731852   0.3356030  79.9789164
  32.4643071   0.0515062  80.0761634  33.4026935   0.7555108  79.1192471
  38.6051119   3.9462619  83.7480331  38.1513446   3.1053529  83.8045522
  37.9745086   4.5824018  84.0855112  37.5484039  -5.1245395  84.9780999
  36.8106795  -5.6368009  85.3091241  37.8010812  -5.5645013  84.1664276
  37.0484058   5.7839116  84.6830150  37.3407033   6.3444173  83.9642515
  37.5582679   6.0767677  85.4383309  33.0707939   1.8764773  77.3177242
  32.6327369   1.1600632  76.8582880  33.8118380   2.1040888  76.7562334
  32.0117683   6.5619467  85.7723603  31.9693862   6.7880313  84.8432135
  32.9280382   6.3282842  85.9209404  41.1881054   0.1521970  83.3753561
  41.0498953   0.3423566  82.4474750  40.8317273   0.9141353  83.8321612
  41.2150434   2.2198497  88.3864833  41.6486940   2.1273786  89.2347887
  41.9282014   2.1955998  87.7484849  30.1283484   3.4382496  85.5685565
  30.9224083   2.9432816  85.3668140  29.4175177   2.9100359  85.2053271
  34.9478329   5.8200591  89.9197933  35.0015351   6.3891528  90.6875649
  34.0793110   5.9902476  89.5551970  42.0765983   2.2622198  90.9197718
  42.2701873   3.1668009  91.1656993  41.9766601   1.8029617  91.7536303
  33.3002912   9.1120614  80.5908939  33.4754668   8.6408658  81.4054562
  32.6135700   9.7386381  80.8190200  34.2559975   3.3893121  86.6372240
  33.9209808   3.3493891  87.5329890  33.7563921   2.7237837  86.1642651
  37.1919167   0.7349155  76.9109300  36.5748338   0.0095983  76.8142353
  36.7235655   1.4958515  76.5676374  27.8663997  12.2609977  87.3648799
  28.1060596  12.8928501  88.0427818  27.0233194  11.9098017  87.6514159
  32.3791859   8.0689100  89.7690303  32.3062031   8.8744071  90.2809608
  31.9369252   8.2681065  88.9438325  32.1681639   7.3060870  83.2793125
  31.3849161   7.8482550  83.3731349  32.8674384   7.8234849  83.6787366
  43.3308046  -1.1804135  87.5645622  43.3197923  -0.2979420  87.1939555
  42.4625426  -1.5332585  87.3700159  34.8390543   7.9675934  91.9248462
  35.5518515   8.6023398  91.8524363  34.3480571   8.0639800  91.1088464
  36.5608070   1.8727186  83.4965754  35.6264348   1.9928649  83.3270458
  36.7384738   0.9699653  83.2325763  39.9480621  -2.2855494  84.0315788
  40.4141073  -1.4527503  83.9576090  40.3988122  -2.7510513  84.7361046
  38.0156852   4.0588327  81.0301940  38.2916696   3.9444921  81.9395814
  37.1461351   3.6605812  80.9914113  34.6510916   8.3074678  84.6734753
  34.8333311   7.4896334  85.1362506  35.4743902   8.5242370  84.2359643
  34.9853082   7.2342863  81.9349802  35.5140848   6.7235317  81.3219964
  35.2481301   6.9185393  82.7995335  28.3408830   8.2857980  84.6947578
  27.6719205   8.7704107  84.2111618  28.2021699   8.5327200  85.6090956
  32.4814098  10.3201723  91.2930236  33.0332406  10.4833345  92.0579321
  32.8220292  10.9106161  90.6210261  35.6182486   8.2683699  88.2793918
  35.4933625   7.4673438  87.7704864  36.2761577   8.7629892  87.7907888
  37.6817394   6.0692719  89.9073468  36.7347729   5.9498070  89.8351795
  38.0300167   5.1815217  89.9899730  34.6863827   5.8645435  86.1077821
  34.5388790   4.9362142  86.2885391  35.5117321   5.8865526  85.6234896
  38.2897949   6.6873994  87.1942693  39.2144497   6.4816855  87.0567145
  38.1213252   6.4390395  88.1032035  38.0793265   7.2059661  82.5504785
  38.2530143   6.6406084  81.7978637  38.5722156   8.0060556  82.3684275
  43.9332656  -0.0303916  84.1695085  44.3763802  -0.7796591  83.7714208
  43.0559167  -0.0393780  83.7868817  39.0668438   6.5226425  79.6501683
  39.7619342   7.1433118  79.8688998  39.4091588   5.6721777  79.9254061
  40.9659861   3.9726131  81.1789014  41.4911185   4.3113404  80.4538334
  40.8782213   3.0373146  80.9952149  32.6500522  10.0398114  85.5384267
  32.2105512   9.5474493  86.2317124  33.4008639   9.4971082  85.2976342
  25.1292861   6.2309655  85.5408895  25.9550881   5.9313427  85.1607539
  24.7786913   5.4617278  85.9898684  30.0974394   5.5836123  87.6106569
  29.4754403   4.9206828  87.3108797  30.7679261   5.6097255  86.9280217
  29.6587901   4.1340047  81.0865029  29.8076021   4.8175511  80.4331702
  30.4654344   4.1145137  81.6014485  43.4765521   1.4401322  86.5617532
  44.3112413   1.8791126  86.7255093  43.6124650   0.9639976  85.7425778
  27.4140534   0.1605224  82.0926098  27.1686576  -0.7432446  82.2906308
  27.5836448   0.1622375  81.1505576  33.1583306   6.6288177  78.5576777
  32.5857273   7.2478364  78.1047249  33.7316100   7.1787539  79.0916699
  36.3780566   6.9125327  79.6885359  37.3111239   6.8470889  79.8918235
  36.2903779   7.7481594  79.2299892  39.0068583   6.2291198  76.6489307
  38.9282214   5.8951061  77.5425064  39.8278249   6.7212966  76.6480779
  41.7046774  -0.9047063  89.8565625  41.6723094  -1.8431062  90.0425309
  42.3147397  -0.8263026  89.1231450  33.5430105  -2.0351010  75.8992829
  34.4889209  -2.1644802  75.9681247  33.1644350  -2.7736348  76.3762257
  47.5223324   0.1568944  88.9971662  48.2526712  -0.1045768  89.5579365
  46.9130269  -0.5802334  89.0373730  45.6038621  -1.7023194  89.5946113
  44.8771784  -1.8367229  88.9862605  45.1885908  -1.3946365  90.4002831
  37.4329321  -6.2185482  82.1751265  36.5455176  -5.9335831  81.9571460
  37.8483310  -6.3791718  81.3278542  40.7843857  -6.1938961  85.8905604
  41.5604247  -5.7042508  86.1630221  40.0591991  -5.7680906  86.3477474
  43.2216416  -5.4811341  86.9479545  43.8160907  -5.7215605  86.2372853
  43.2942999  -6.2004211  87.5753081  25.4413571   8.3622269  87.2622710
  25.3068039   7.6022670  86.6960708  25.0245634   9.0863169  86.7951498
  36.5772534   3.5459193  76.2699285  37.2808385   3.7509196  76.8856940
  35.8535183   4.1135955  76.5348368  37.4070345  -0.7030946  82.3901555
  37.3505546  -0.2462394  81.5509187  37.9598687  -1.4640261  82.2124398
  41.2175151  -4.9141214  83.2151675  40.9612085  -5.3144578  84.0459882
  40.5928019  -4.1997420  83.0901814  45.5287488  -2.1745141  85.7222966
  44.9687046  -2.1051951  86.4954528  44.9230992  -2.3504156  85.0022462
  28.5982697   9.2591587  87.4741152  28.4815081  10.2037019  87.3719843
  27.7775144   8.9565148  87.8626951  38.4859232   3.9841722  78.3197745
  39.3204836   3.5522921  78.1375220  38.3243575   3.8123736  79.2474639
  38.1405124   0.4873836  79.6854084  38.0853928   0.3218107  78.7442528
  37.5151179   1.1949868  79.8416274  29.6237211   9.9119848  90.6897081
  30.5264458   9.9443459  91.0063576  29.3974581   8.9820299  90.7043416
  31.3790813   8.6650835  87.3507159  30.4286444   8.6652697  87.2371532
  31.6823300   7.9183570  86.8343194  47.1143507  14.5011373  88.4152922
  47.7521917  14.3818121  87.7116262  46.9964350  15.4492217  88.4740874
  43.9233213  14.4538801  88.3514446  43.5851725  14.3379866  87.4634981
  44.7922981  14.0529967  88.3315453  39.7820029  16.3074278  84.3411337
  39.2184894  16.2164215  83.5727625  39.6672424  15.4874182  84.8213830
  44.4052996  15.6073653  94.3100652  44.3941637  15.2126451  93.4381156
  44.5673636  14.8739726  94.9034423  37.3284461  17.8025469  87.1795558
  38.1205753  17.4616294  86.7641857  37.5681111  17.9120444  88.0997711
  45.3619588  19.9745246  79.6525802  44.7107567  20.5599326  79.2659816
  46.1563950  20.5051440  79.7120840  39.2875215  17.0634383  80.0512937
  40.0606091  16.5163370  79.9125812  39.6400614  17.9278632  80.2627398
  41.1260257  18.3910765  93.2579836  40.8350123  19.2956396  93.1426502
  41.7617242  18.4327293  93.9723905  42.0516464  15.7687613  89.8481196
  42.6480036  15.5443636  89.1338158  42.1091436  15.0272359  90.4506643
  41.6241493  13.2227049  77.6831386  41.8767013  12.7008570  76.9214849
  40.6866052  13.0593194  77.7858070  46.6684775  12.2262827  85.4906130
  47.4547865  11.8082250  85.1396547  46.9323480  13.1308919  85.6587778
  46.8394853  17.6635677  80.1894787  46.2040686  17.7370304  80.9015691
  46.5092259  18.2529276  79.5113866  52.0693203  12.1638060  86.3939108
  52.8018374  11.5937277  86.6276938  51.3132558  11.7759661  86.8345614
  41.3437781  15.1255155  79.8855761  41.2274039  14.4500058  80.5536846
  41.4540041  14.6387529  79.0687915  43.6869322  14.5865302  83.5902451
  43.3227529  14.0595923  84.3015372  44.5436438  14.1963771  83.4168936
  49.5918623   5.8759634  90.8533717  49.2601948   6.7455045  90.6294932
  48.9964236   5.5595918  91.5327747  43.3274809   9.6155202  78.5863799
  43.4949212  10.4835438  78.9534270  43.1371978   9.7782483  77.6625088
  46.0850142  18.0772180  90.2529630  45.7850866  18.9797219  90.1445437
  45.7401202  17.8104364  91.1050782  39.5362624  14.5285977  86.2866334
  38.6113120  14.3962191  86.4944026  39.7847037  15.3080197  86.7836276
  49.4847286  10.5954721  87.9327067  48.5764164  10.5270129  87.6385828
  49.4334882  11.0726666  88.7608892  43.3064030  12.0712859  79.5710466
  43.1863655  12.5169910  80.4095946  42.6116618  12.4198177  79.0124004
  36.8971435  14.1719251  87.1210123  37.0263816  14.4253730  88.0349535
  36.2168886  14.7646959  86.8014778  41.0670922  24.8416501  83.2200597
  40.9894952  25.7924326  83.2989078  40.4632566  24.4962373  83.8775524
  43.5588152  12.0144366  95.8761964  42.7821486  12.5738286  95.8664829
  44.1978715  12.5001149  96.3976834  51.3508933   8.7971159  89.7104941
  50.7083313   9.0903692  89.0644735  50.8463861   8.6824079  90.5158137
  49.0049096  12.5434332  80.3990800  49.9166952  12.7761719  80.2238498
  48.4958743  13.1271376  79.8365879  41.8134524  14.8229820  95.4379931
  42.5549209  15.3614864  95.1614755  41.1071510  15.4496108  95.5951483
  47.2889864  16.9658960  94.0352093  47.6973220  16.5241371  93.2906725
  46.5667125  16.3911588  94.2886286  43.6420934  11.9031567  91.4085650
  44.4882129  12.3270980  91.5520299  43.5819572  11.2465191  92.1024213
  47.6118679  17.5260151  87.7904382  46.9827541  17.6905865  87.0880449
  47.2244341  17.9401760  88.5615346  51.4907910  18.4614589  85.1448745
  50.8058949  18.8413490  84.5945779  51.5751760  19.0709915  85.8780693
  46.7920379   9.5635935  93.0666823  46.5481311  10.3177996  92.5301099
  47.0680310   9.9421283  93.9014070  48.7458842  16.1074548  91.7444089
  48.9575737  16.7506307  91.0678470  48.6988590  15.2736864  91.2766019
  46.3485071   8.7192368  88.6480661  45.4869550   9.0173622  88.9397399
  46.3747506   8.9362767  87.7161694  43.1646640  17.2634559  85.0554467
  43.6284986  17.5422262  84.2659089  42.9003439  16.3618003  84.8727557
  40.0570722  16.8106040  87.9934230  40.6272079  17.2393309  87.3551714
  40.6478833  16.5288625  88.6918416  42.1015527  13.3857711  81.8644032
  42.8039570  13.8378755  82.3317958  41.7696155  12.7441530  82.4923925
  40.5495888  11.9769468  96.2395241  39.9194549  12.6585749  96.4730638
  40.4431976  11.8652549  95.2948379  35.8440860  11.6441264  87.1661165
  35.0539914  11.8998792  86.6901276  36.3352108  12.4589602  87.2713206
  49.8604670  18.9846503  89.9166446  50.6822114  18.5826690  89.6349128
  49.8567073  18.8814737  90.8682562  37.7955606  12.0085843  84.1244642
  36.9986769  12.1204537  84.6428138  37.5681198  12.3472495  83.2585533
  43.6261273  18.5330546  92.0727157  43.6905706  18.9950954  92.9085329
  42.9172197  17.9027911  92.2009467  34.1278563  11.8971754  89.5976156
  34.3786602  12.7818764  89.8633732  34.6638112  11.7176356  88.8251248
  57.9510663  15.3285251  86.2651418  57.1974371  14.7592650  86.1095422
  58.0858204  15.2947916  87.2122052  43.3409291  20.1998654  81.9406137
  43.2054966  21.0450190  82.3690985  43.8819104  20.4017931  81.1772071
  36.7938689  17.7174092  82.5134062  37.3063209  18.5117342  82.6639627
  37.4461401  17.0200382  82.4467664  38.6033573  20.8339848  84.5956815
  38.7800202  21.7557813  84.4077799  39.3990407  20.5198267  85.0251195
  42.7444592   7.6948113  96.1940749  43.4854305   8.2955266  96.1145211
  42.9762515   6.9525751  95.6358791  37.8885930  12.8804480  94.4718978
  37.7739445  11.9789737  94.7726077  37.0330448  13.1268177  94.1203795
  44.9677768  20.8222220  96.0706479  44.5241622  20.0358599  95.7527384
  45.6294981  21.0101371  95.4050370  39.7264889  22.3518022  90.5967158
  40.2772314  22.2235085  89.8244152  38.8876365  22.6512911  90.2462050
  47.0659006  21.1025020  94.0987880  47.0477481  21.9233901  93.6068150
  47.9878926  20.9779095  94.3238022  43.5232060  18.6169150  94.9411389
  44.0560397  17.8557438  94.7110697  42.9946141  18.3242802  95.6835543
  46.6901755   3.7229216  90.4705030  46.3466024   4.6130857  90.3944141
  47.0580717   3.5330873  89.6074615  34.7587605  16.0462746  83.2893633
  35.5962827  16.4559754  83.0727340  34.9365873  15.1062188  83.2593826
  46.6552037  13.7137827  78.9777466  46.1398661  14.4842431  79.2165853
  46.3829346  13.0402963  79.6010527  44.2399148   8.5587528  84.0362704
  43.3840745   8.1694378  83.8568343  44.6526100   8.6379488  83.1762489
  45.7698295   6.0933871  88.4354264  45.2663091   6.0564006  87.6222069
  46.0628902   7.0026614  88.4950920  42.0141181   6.1772601  87.4420445
  42.8794178   5.9815409  87.0826335  42.0818690   5.9482952  88.3689802
  51.6286312  16.4670181  80.9130639  50.8515754  16.1281341  80.4685801
  52.3077793  16.4722805  80.2385604  46.4438341  11.5864919  80.8037247
  46.1388476  11.9011068  81.6547390  47.3968783  11.6646339  80.8464580
  44.8884772  17.7455142  82.4530201  44.3606134  17.0107902  82.1403438
  44.3872275  18.5229819  82.2070169  49.8677618  15.9404163  87.5697247
  49.2101293  16.6303424  87.6577376  50.6718018  16.3300595  87.9131233
  39.6203500   8.4074808  84.8136812  40.1947252   8.1849990  84.0810005
  40.2074482   8.4763503  85.5665414  48.6783077  14.2948535  85.6201189
  49.1914959  14.9278527  86.1222899  49.3284301  13.6949731  85.2544549
  39.9473087  10.4379269  78.8332698  39.1110399  10.7753956  79.1541972
  39.8077857  10.3028249  77.8959834  41.9226168   5.2816057  83.5411882
  41.2690580   4.9665075  82.9168496  41.8806642   4.6591798  84.2671705
  43.0337373  15.5635352  75.4565174  42.1264434  15.3324606  75.6556323
  43.5308405  14.7672972  75.6439155  45.9405452  24.2732860  78.3761860
  45.2667150  24.5764556  78.9846818  46.3271273  25.0761940  78.0267317
  45.1563908  11.7697991  87.8659529  44.2386470  11.9912938  87.7081217
  45.5724052  11.8444301  87.0071237  45.9398956  13.1689407  82.9962210
  46.6870775  13.6810804  82.6869332  46.2090545  12.8473459  83.8566603
  44.2125606  15.6647947  79.9789164  43.3036825  15.3806980  80.0761634
  44.2420690  16.0847026  79.1192471  49.4444873  19.2754537  83.7480331
  48.9907201  18.4345447  83.8045522  48.8138840  19.9115935  84.0855112
  48.3877793  10.2046523  84.9780999  47.6500550   9.6923909  85.3091241
  48.6404567   9.7646904  84.1664276  47.8877813  21.1131034  84.6830150
  48.1800787  21.6736091  83.9642515  48.3976433  21.4059595  85.4383309
  48.4889420   2.9822775  85.5722768  48.7948297   2.1220138  85.2848683
  49.2142025   3.5740395  85.3721762  34.7813776  13.3853461  83.9604366
  34.5838176  12.7922822  83.2355433  34.2260440  13.0805672  84.6780305
  42.7610500  13.2776568  86.0798959  42.8159110  12.3250404  86.0041436
  41.9501702  13.4336007  86.5640258  43.9101694  17.2056691  77.3177242
  43.4721124  16.4892550  76.8582880  44.6512135  17.4332806  76.7562334
  40.7002860  11.8953628  83.8389338  39.8870726  12.1947798  84.2454530
  41.1961854  11.5009316  84.5563820  42.8511438  21.8911385  85.7723603
  42.8087617  22.1172231  84.8432135  43.7674137  21.6574759  85.9209404
  46.2977072  12.3595452  92.6704232  46.6526459  12.5866925  93.5298698
  46.9449203  12.6913829  92.0481487  52.0274809  15.4813888  83.3753561
  51.8892707  15.6715484  82.4474750  51.6711027  16.2433271  83.8321612
  40.1916935   9.4671983  89.4550573  40.8316314   9.3260742  88.7573536
  39.3594465   9.1806497  89.0789175  52.0544188  17.5490415  88.3864833
  52.4880695  17.4565704  89.2347887  52.7675769  17.5247915  87.7484849
  40.9677239  18.7674414  85.5685565  41.7617837  18.2724734  85.3668140
  40.2568931  18.2392277  85.2053271  45.7872083  21.1492509  89.9197933
  45.8409105  21.7183445  90.6875649  44.9186865  21.3194394  89.5551970
  37.2760002  12.9117495  81.6445318  36.3457590  12.8501951  81.8615280
  37.3717474  12.3893448  80.8481959  37.1945551   9.4372308  84.2323560
  37.4552369  10.3517641  84.1232720  38.0162724   8.9696751  84.3820173
  38.6670477  10.8510065  91.4022384  39.3393530  10.6427427  90.7535033
  37.8400263  10.6532151  90.9627617  52.9159738  17.5914116  90.9197718
  53.1095628  18.4959926  91.1656993  52.8160356  17.1321535  91.7536303
  44.5696049   7.4772006  93.4188045  43.9223964   8.1761956  93.3252522
  45.3397064   7.9108150  93.7864293  47.9774846  17.7420858  96.4938599
  47.8260353  17.5131410  95.5768682  47.9679526  18.6991460  96.5069944
  44.7460183  15.3152771  91.4784865  45.6752243  15.4663931  91.3053832
  44.3251213  15.4036792  90.6233511  43.5448515  19.3403436  89.2483403
  43.4059600  18.9722220  90.1209341  42.7563111  19.8551075  89.0767360
  44.1396667  24.4412532  80.5908939  44.3148422  23.9700575  81.4054562
  43.4529455  25.0678298  80.8190200  45.0953730  18.7185038  86.6372240
  44.7603562  18.6785808  87.5329890  44.5957676  18.0529754  86.1642651
  39.0697974  14.1252668  92.1624822  38.9317772  13.3932907  92.7636361
  39.9802897  14.0361568  91.8809009  41.6980274  13.8372628  91.6508501
  42.4079893  13.1965820  91.6095120  41.6549583  14.0885522  92.5734682
  49.6867053  20.7739981  94.5715080  49.6279599  20.0899201  93.9045663
  50.0886572  21.5158971  94.1195706  40.4109208  10.8237846  93.4704141
  39.8746565  10.3728584  94.1225737  39.8225917  10.9583754  92.7274605
  38.7057752  27.5901895  87.3648799  38.9454350  28.2220419  88.0427818
  37.8626948  27.2389935  87.6514159  39.8211467  10.2826497  76.0330604
  38.9440934  10.1615298  75.6692851  40.2969220   9.4912575  75.7809493
  49.6884460  18.7379565  92.8029060  48.8011239  18.4005487  92.9255459
  50.2583011  18.0062596  93.0397825  31.3413608  15.0703657  86.1272111
  32.0284647  14.7565387  85.5393127  31.1861736  15.9745021  85.8539363
  36.1448330   9.9593853  90.5557135  36.0606518   9.3519523  89.8207545
  35.3231036  10.4502872  90.5566631  43.2185614  23.3981017  89.7690303
  43.1455785  24.2035989  90.2809608  42.7763007  23.5972983  88.9438325
  43.0075393  22.6352787  83.2793125  42.2242915  23.1774467  83.3731349
  43.7068139  23.1526767  83.6787366  46.3172044   8.4447417  85.9227330
  46.8140743   7.6917379  85.6028400  45.5459025   8.4811733  85.3570540
  54.1701801  14.1487782  87.5645622  54.1591677  15.0312498  87.1939555
  53.3019180  13.7959333  87.3700159  45.6784297  23.2967851  91.9248462
  46.3912270  23.9315316  91.8524363  45.1874326  23.3931717  91.1088464
  47.4001824  17.2019104  83.4965754  46.4658103  17.3220566  83.3270458
  47.5778493  16.2991571  83.2325763  42.9007012  10.5864800  85.6499015
  42.5304800  10.0335840  86.3379920  43.3966105   9.9822933  85.0974015
  50.7874376  13.0436423  84.0315788  51.2534828  13.8764415  83.9576090
  51.2381876  12.5781405  84.7361046  40.7296211  21.0462295  92.7454033
  41.4305670  21.6798778  92.8983427  40.2591326  21.3877026  91.9849672
  48.8550607  19.3880245  81.0301940  49.1310451  19.2736839  81.9395814
  47.9855105  18.9897729  80.9914113  48.7591038   5.4117010  88.0706689
  47.8454118   5.6421237  88.2388896  49.1884140   5.4955454  88.9220721
  48.5297497  13.6006902  90.5706583  47.8768947  13.8482810  89.9159036
  48.9077877  12.7871040  90.2369060  45.4904671  23.6366595  84.6734753
  45.6727065  22.8188251  85.1362506  46.3137657  23.8534288  84.2359643
  45.8246836  22.5634781  81.9349802  46.3534603  22.0527235  81.3219964
  46.0875056  22.2477311  82.7995335  44.5785070  14.3426713  97.0572620
  43.9025707  14.2420843  97.7274995  45.4012704  14.1865927  97.5208617
  36.3263929  20.5798650  89.6785135  36.9117366  19.8342338  89.8113040
  36.1288767  20.8902607  90.5621799  39.1802584  23.6149897  84.6947578
  38.5112959  24.0996025  84.2111618  39.0415454  23.8619118  85.6090956
  30.9181584  13.1504250  88.3989579  30.9565683  12.6167841  89.1926697
  30.4121876  12.6239456  87.7800556  43.3207853  25.6493641  91.2930236
  43.8726161  25.8125262  92.0579321  43.6614046  26.2398079  90.6210261
  38.2972346   7.9968791  91.8952121  38.3613672   8.8583621  91.4829519
  38.2339466   7.3842792  91.1624479  48.1718727  20.4754898  97.1478891
  48.7158631  21.0884857  96.6533845  47.5905572  21.0334477  97.6645904
  34.5490161  11.8768352  81.4743510  34.8443602  10.9679031  81.4210564
  33.6478197  11.8556092  81.1524512  46.4576240  23.5975616  88.2793918
  46.3327379  22.7965356  87.7704864  47.1155331  24.0921810  87.7907888
  38.0784408   9.9524349  87.4571059  37.3570994  10.5660316  87.3178532
  38.8677664  10.4882114  87.3787705  48.5211148  21.3984636  89.9073468
  47.5741484  21.2789988  89.8351795  48.8693921  20.5107134  89.9899730
  40.8810722   7.2878775  93.7311710  41.4045124   7.5341072  94.4938020
  40.6623055   8.1198810  93.3114848  36.2778003   9.5582450  81.5982835
  35.9490709   8.6779829  81.4157941  36.6317374   9.5030119  82.4859224
  45.5257582  21.1937353  86.1077821  45.3782544  20.2654060  86.2885391
  46.3511075  21.2157443  85.6234896  39.3919826   9.8455420  81.9658313
  39.7315898  10.3741341  81.2436921  39.8391946  10.1835826  82.7416879
  49.1291704  22.0165911  87.1942693  50.0538251  21.8108773  87.0567145
  48.9607007  21.7682312  88.1032035  42.0863267   8.2292470  91.4161381
  41.7460087   7.4300283  91.8182061  41.3802273   8.5294181  90.8438214
  42.7379739   5.3141783  89.8688704  43.5605808   4.8402261  89.7467594
  42.9817802   6.0932267  90.3687390  41.3787973   8.3430041  80.1651606
  42.0996336   8.7211294  79.6615322  40.7553277   9.0618918  80.2686584
  45.5219096   9.0475190  81.1009938  45.7382710   9.9299828  80.7998766
  45.0413163   8.6561404  80.3715580  40.2618317  12.0060903  87.6780682
  40.1162898  12.3201206  88.5704964  39.7843521  12.6245804  87.1251581
  42.1214700   8.9963451  87.7261572  42.1076269   8.1004545  87.3893870
  42.8387128   9.0034115  88.3599858  43.9740831   9.4300792  89.7714699
  43.7158609  10.3517862  89.7699030  43.4425871   9.0331226  90.4615164
  48.9187020  22.5351579  82.5504785  49.0923897  21.9698001  81.7978637
  49.4115911  23.3352474  82.3684275  34.7363980  14.5466248  90.6168344
  34.1917448  15.3226056  90.7488618  35.6143329  14.8937052  90.4587465
  41.5251596   7.8777832  82.9949142  41.6467507   6.9494478  83.1940030
  41.2353639   7.8916518  82.0827458  44.3942787   5.5632742  86.1315862
  44.4164483   5.6272075  85.1767842  44.8110846   4.7237251  86.3256368
  54.7726411  15.2988002  84.1695085  55.2157557  14.5495327  83.7714208
  53.8952921  15.2898138  83.7868817  49.9062192  21.8518343  79.6501683
  50.6013097  22.4725036  79.8688998  50.2485342  21.0013694  79.9254061
  35.5230001  13.6736144  93.5098501  34.7811737  13.8218779  94.0963131
  35.2022746  13.9344410  92.6465250  51.8053615  19.3018049  81.1789014
  52.3304939  19.6405321  80.4538334  51.7175968  18.3665064  80.9952149
  43.4673664  23.2152122  93.3078891  43.7760790  22.9701269  94.1801590
  44.2649146  23.4198761  92.8197761  43.4894276  25.3690032  85.5384267
  43.0499266  24.8766411  86.2317124  44.2402393  24.8263000  85.2976342
  35.9686615  21.5601573  85.5408895  36.7944635  21.2605345  85.1607539
  35.6180667  20.7909195  85.9898684  40.9368148  20.9128041  87.6106569
  40.3148158  20.2498746  87.3108797  41.6073015  20.9389173  86.9280217
  34.1695220  19.4787899  86.4997829  33.3327128  19.0510074  86.3181830
  34.1418866  19.6720343  87.4368620  51.4947521  19.9350952  96.4840212
  50.7043065  19.9175091  95.9444711  51.2580876  20.4739246  97.2389248
  51.6145396  16.7843419  93.7972940  51.6643401  16.6193426  94.7388463
  51.5059320  15.9170678  93.4070821  40.4981655  19.4631964  81.0865029
  40.6469776  20.1467429  80.4331702  41.3048099  19.4437054  81.6014485
  48.9049159  12.7674347  95.1132247  49.8059022  12.6280812  94.8216245
  48.9797133  12.9328802  96.0530425  43.2391964  10.1441201  93.9585433
  42.3695274  10.4374768  93.6868022  43.4751445  10.7281646  94.6792697
  53.1163593  19.2040360  94.0414962  52.8248402  19.5670341  94.8778423
  52.5035725  18.4907368  93.8628294  54.3159276  16.7693240  86.5617532
  55.1506167  17.2083044  86.7255093  54.4518404  16.2931893  85.7425778
  51.3650782  14.3272975  92.5095020  51.8404903  14.5200621  91.7013871
  50.4416347  14.3832161  92.2638404  38.2534288  15.4897142  82.0926098
  38.0080330  14.5859472  82.2906308  38.4230203  15.4914292  81.1505576
  45.9430998   6.3620818  91.4750854  46.4612942   7.0981845  91.1497342
  45.5886131   6.6684812  92.3097613  37.5229936  11.2225500  79.5912260
  36.8299181  11.2969855  78.9352296  37.2781688  10.4585843  80.1133777
  46.1943592   2.7821101  86.9951750  46.4745346   2.1144290  87.6212177
  46.9794199   2.9750197  86.4826414  43.9977061  21.9580095  78.5576777
  43.4251028  22.5770282  78.1047249  44.5709854  22.5079457  79.0916699
  50.0652451  11.2038735  90.7423326  51.0169873  11.3036833  90.7635550
  49.8955901  10.4117003  91.2521410  48.0866830   8.2894318  90.9282726
  47.4916762   8.5699331  90.2329215  47.8016527   8.7788219  91.6999468
  47.2174320  22.2417245  79.6885359  48.1504994  22.1762807  79.8918235
  47.1297533  23.0773512  79.2299892  52.5440528  14.4244855  89.8565625
  52.5116848  13.4860855  90.0425309  53.1541152  14.5028891  89.1231450
  44.3823859  13.2940908  75.8992829  45.3282964  13.1647116  75.9681247
  44.0038104  12.5555569  76.3762257  52.6935017  11.2155898  89.9023908
  52.1774065  10.4314355  89.7153837  53.5774965  10.8874615  90.0670428
  50.3545744   4.9596914  85.8619721  50.1570565   4.6512002  86.7463053
  50.9645449   5.6858553  85.9917651  58.3617078  15.4860861  88.9971662
  59.0920467  15.2246150  89.5579365  57.7524024  14.7489583  89.0373730
  56.4432375  13.6268724  89.5946113  55.7165539  13.4924689  88.9862605
  56.0279662  13.9345553  90.4002831  44.2662552  17.3458654  97.3593486
  45.1865561  17.5237253  97.5533533  44.2312135  16.4014699  97.2073185
  42.5666776  11.2190884  75.8347714  41.6598232  10.9223997  75.9110428
  42.8442757  10.9220702  74.9682001  33.4844717  12.5397247  86.2846761
  33.1647501  11.6862556  85.9921135  32.9378145  12.7545826  87.0404728
  37.2624624  15.2559688  90.0016267  37.4810634  16.1876796  90.0204301
  37.6750398  14.8967663  90.7871071  44.1828842   5.7627774  81.9891956
  43.3729570   5.4174859  82.3647202  44.8713259   5.4535317  82.5779567
  46.1119390   4.8405820  83.6116252  46.6650429   5.2601274  84.2706275
  46.3489477   3.9141569  83.6539208  41.3365561   8.0777819  75.9759694
  42.1984725   8.4032717  76.2355511  41.5215905   7.2909315  75.4632759
  33.3532977  16.1600159  88.2539882  32.6596448  15.7454112  87.7409837
  34.1005968  16.2020695  87.6573301  49.4898197   6.9506346  83.1194917
  48.9096866   7.6091150  82.7372969  49.2234130   6.1283690  82.7082334
  47.9401764   6.3511403  85.3216237  48.4401542   6.4627938  84.5130556
  48.5837372   6.0472456  85.9617045  41.9983760  14.2590033  98.2084078
  41.5150841  15.0590393  98.4147967  42.0844699  14.2697978  97.2551522
  35.2669719  16.0918413  86.1305897  35.2440407  16.1906100  85.1787780
  35.5770356  16.9383563  86.4523063  37.9257097  18.1494568  90.2452512
  38.8800351  18.1178510  90.1782443  37.7269621  17.6885191  91.0602738
  38.5156479  16.7195684  92.8123309  39.3349368  17.2139762  92.8358147
  38.7893287  15.8027652  92.7840877  48.2723075   9.1106436  82.1751265
  47.3848930   9.3956087  81.9571460  48.6877065   8.9500199  81.3278542
  51.6237612   9.1352957  85.8905604  52.3998002   9.6249409  86.1630221
  50.8985746   9.5611011  86.3477474  54.0610170   9.8480576  86.9479545
  54.6554661   9.6076312  86.2372853  54.1336754   9.1287707  87.5753081
  36.2807326  23.6914187  87.2622710  36.1461794  22.9314588  86.6960708
  35.8639388  24.4155087  86.7951498  48.2464099  14.6260972  82.3901555
  48.1899301  15.0829523  81.5509187  48.7992442  13.8651657  82.2124398
  52.0568905  10.4150704  83.2151675  51.8005839  10.0147339  84.0459882
  51.4321773  11.1294498  83.0901814  56.3681243  13.1546777  85.7222966
  55.8080801  13.2239966  86.4954528  55.7624746  12.9787762  85.0022462
  39.4376452  24.5883504  87.4741152  39.3208836  25.5328937  87.3719843
  38.6168898  24.2857066  87.8626951  33.7691393  11.0533818  93.5115506
  34.4150257  10.5432772  94.0002732  33.5608545  11.7902499  94.0858932
  46.2944786  18.1214665  99.0107647  47.1635945  18.2955317  98.6494282
  45.8151537  18.9409082  98.8883376  42.2895004   5.3173862  79.2639403
  42.2773674   6.2615702  79.4207673  43.1818426   5.1344008  78.9698864
  40.4630966  25.2411766  90.6897081  41.3658213  25.2735376  91.0063576
  40.2368336  24.3112217  90.7043416  42.2184568  23.9942753  87.3507159
  41.2680199  23.9944614  87.2371532  42.5217054  23.2475487  86.8343194
  46.1047123   1.9116639  83.5185339  45.3379519   1.3575126  83.6642022
  46.5157828   1.9838508  84.3799491  57.9537261  29.8303291  88.4152922
  58.5915671  29.7110038  87.7116262  57.8358104  30.7784135  88.4740874
  54.7626968  29.7830719  88.3514446  54.4245479  29.6671784  87.4634981
  55.6316736  29.3821884  88.3315453  50.6213783  31.6366196  84.3411337
  50.0578649  31.5456132  83.5727625  50.5066178  30.8166100  84.8213830
  55.2446751  30.9365571  94.3100652  55.2335391  30.5418369  93.4381156
  55.4067390  30.2031643  94.9034423  48.1678215  33.1317387  87.1795558
  48.9599507  32.7908212  86.7641857  48.4074865  33.2412362  88.0997711
  51.9654012  33.7202683  93.2579836  51.6743878  34.6248313  93.1426502
  52.6010996  33.7619210  93.9723905  52.8910219  31.0979531  89.8481196
  53.4873791  30.8735554  89.1338158  52.9485190  30.3564277  90.4506643
  62.9086957  27.4929978  86.3939108  63.6412129  26.9229195  86.6276938
  62.1526313  27.1051579  86.8345614  60.4312377  21.2051552  90.8533717
  60.0995702  22.0746963  90.6294932  59.8357991  20.8887836  91.5327747
  54.1668564  24.9447119  78.5863799  54.3342966  25.8127356  78.9534270
  53.9765733  25.1074401  77.6625088  50.3756378  29.8577895  86.2866334
  49.4506875  29.7254109  86.4944026  50.6240792  30.6372114  86.7836276
  60.3241041  25.9246638  87.9327067  59.4157918  25.8562047  87.6385828
  60.2728636  26.4018583  88.7608892  54.1457785  27.4004777  79.5710466
  54.0257410  27.8461828  80.4095946  53.4510373  27.7490094  79.0124004
  47.7365189  29.5011169  87.1210123  47.8657571  29.7545647  88.0349535
  47.0562641  30.0938877  86.8014778  54.3981906  27.3436284  95.8761964
  53.6215241  27.9030204  95.8664829  55.0372470  27.8293067  96.3976834
  62.1902687  24.1263077  89.7104941  61.5477067  24.4195610  89.0644735
  61.6857616  24.0115997  90.5158137  59.8442851  27.8726250  80.3990800
  60.7560707  28.1053637  80.2238498  59.3352498  28.4563294  79.8365879
  52.6528279  30.1521737  95.4379931  53.3942963  30.6906781  95.1614755
  51.9465264  30.7788026  95.5951483  58.1283618  32.2950878  94.0352093
  58.5366974  31.8533288  93.2906725  57.4060880  31.7203505  94.2886286
  54.4814688  27.2323485  91.4085650  55.3275884  27.6562898  91.5520299
  54.4213326  26.5757109  92.1024213  62.3301665  33.7906506  85.1448745
  61.6452703  34.1705408  84.5945779  62.4145514  34.4001833  85.8780693
  57.6314134  24.8927853  93.0666823  57.3875066  25.6469913  92.5301099
  57.9074064  25.2713200  93.9014070  59.5852597  31.4366465  91.7444089
  59.7969492  32.0798225  91.0678470  59.5382345  30.6028782  91.2766019
  57.1878826  24.0484286  88.6480661  56.3263305  24.3465539  88.9397399
  57.2141260  24.2654685  87.7161694  50.8964476  32.1397958  87.9934230
  51.4665833  32.5685226  87.3551714  51.4872588  31.8580543  88.6918416
  51.3889643  27.3061385  96.2395241  50.7588303  27.9877666  96.4730638
  51.2825730  27.1944467  95.2948379  46.6834615  26.9733181  87.1661165
  45.8933669  27.2290710  86.6901276  47.1745862  27.7881519  87.2713206
  60.6998425  34.3138421  89.9166446  61.5215868  33.9118608  89.6349128
  60.6960827  34.2106655  90.8682562  48.6349360  27.3377761  84.1244642
  47.8380524  27.4496455  84.6428138  48.4074953  27.6764413  83.2585533
  54.4655028  33.8622464  92.0727157  54.5299460  34.3242871  92.9085329
  53.7565952  33.2319829  92.2009467  44.9672318  27.2263672  89.5976156
  45.2180356  28.1110682  89.8633732  45.5031866  27.0468273  88.8251248
  68.7904418  30.6577169  86.2651418  68.0368126  30.0884567  86.1095422
  68.9251959  30.6239834  87.2122052  50.6670385  21.6082151  98.6020492
  50.2737331  21.0548350  99.2768136  51.4836526  21.9192730  98.9927010
  47.6332443  33.0466009  82.5134062  48.1456964  33.8409260  82.6639627
  48.2855156  32.3492300  82.4467664  49.4427328  36.1631766  84.5956815
  49.6193956  37.0849730  84.4077799  50.2384161  35.8490185  85.0251195
  53.5838346  23.0240030  96.1940749  54.3248060  23.6247184  96.1145211
  53.8156269  22.2817668  95.6358791  48.7279684  28.2096398  94.4718978
  48.6133199  27.3081655  94.7726077  47.8724202  28.4560094  94.1203795
  55.8071522  36.1514138  96.0706479  55.3635376  35.3650517  95.7527384
  56.4688736  36.3393288  95.4050370  50.5658643  37.6809940  90.5967158
  51.1166068  37.5527003  89.8244152  49.7270119  37.9804829  90.2462050
  57.9052760  36.4316938  94.0987880  57.8871235  37.2525819  93.6068150
  58.8272680  36.3071013  94.3238022  54.3625814  33.9461067  94.9411389
  54.8954151  33.1849356  94.7110697  53.8339895  33.6534719  95.6835543
  57.5295509  19.0521133  90.4705030  57.1859779  19.9422775  90.3944141
  57.8974472  18.8622791  89.6074615  45.5981360  31.3754664  83.2893633
  46.4356582  31.7851672  83.0727340  45.7759628  30.4354106  83.2593826
  55.0792903  23.8879445  84.0362704  54.2234499  23.4986296  83.8568343
  55.4919855  23.9671406  83.1762489  56.6092050  21.4225788  88.4354264
  56.1056845  21.3855924  87.6222069  56.9022656  22.3318531  88.4950920
  52.8534935  21.5064518  87.4420445  53.7187932  21.3107327  87.0826335
  52.9212444  21.2774870  88.3689802  60.7071373  31.2696080  87.5697247
  60.0495047  31.9595342  87.6577376  61.5111772  31.6592512  87.9131233
  50.4597255  23.7366726  84.8136812  51.0341006  23.5141908  84.0810005
  51.0468237  23.8055421  85.5665414  50.7866842  25.7671187  78.8332698
  49.9504154  26.1045874  79.1541972  50.6471611  25.6320167  77.8959834
  52.7619922  20.6107975  83.5411882  52.1084335  20.2956992  82.9168496
  52.7200396  19.9883716  84.2671705  55.9957663  27.0989909  87.8659529
  55.0780224  27.3204856  87.7081217  56.4117806  27.1736219  87.0071237
  59.2271548  25.5338441  84.9780999  58.4894304  25.0215827  85.3091241
  59.4798321  25.0938822  84.1664276  59.3283175  18.3114693  85.5722768
  59.6342052  17.4512056  85.2848683  60.0535780  18.9032313  85.3721762
  45.6207531  28.7145379  83.9604366  45.4231931  28.1214740  83.2355433
  45.0654195  28.4097589  84.6780305  51.5396615  27.2245545  83.8389338
  50.7264480  27.5239716  84.2454530  52.0355609  26.8301234  84.5563820
  57.1370826  27.6887370  92.6704232  57.4920214  27.9158843  93.5298698
  57.7842957  28.0205747  92.0481487  62.8668563  30.8105806  83.3753561
  62.7286462  31.0007402  82.4474750  62.5104782  31.5725189  83.8321612
  51.0310689  24.7963901  89.4550573  51.6710069  24.6552660  88.7573536
  50.1988220  24.5098414  89.0789175  62.8937943  32.8782333  88.3864833
  63.3274449  32.7857622  89.2347887  63.6069523  32.8539833  87.7484849
  51.8070993  34.0966331  85.5685565  52.6011592  33.6016651  85.3668140
  51.0962686  33.5684194  85.2053271  48.1153757  28.2409413  81.6445318
  47.1851345  28.1793869  81.8615280  48.2111229  27.7185366  80.8481959
  48.0339306  24.7664226  84.2323560  48.2946123  25.6809559  84.1232720
  48.8556478  24.2988668  84.3820173  49.5064231  26.1801983  91.4022384
  50.1787284  25.9719345  90.7535033  48.6794018  25.9824069  90.9627617
  63.7553492  32.9206033  90.9197718  63.9489382  33.8251844  91.1656993
  63.6554110  32.4613452  91.7536303  55.4089803  22.8063924  93.4188045
  54.7617718  23.5053874  93.3252522  56.1790818  23.2400068  93.7864293
  58.8168601  33.0712776  96.4938599  58.6654107  32.8423328  95.5768682
  58.8073280  34.0283378  96.5069944  55.5853937  30.6444689  91.4784865
  56.5145997  30.7955848  91.3053832  55.1644967  30.7328710  90.6233511
  49.9091728  29.4544586  92.1624822  49.7711526  28.7224825  92.7636361
  50.8196652  29.3653486  91.8809009  52.5374029  29.1664545  91.6508501
  53.2473647  28.5257738  91.6095120  52.4943337  29.4177440  92.5734682
  60.5260808  36.1031899  94.5715080  60.4673354  35.4191119  93.9045663
  60.9280326  36.8450889  94.1195706  51.2502963  26.1529763  93.4704141
  50.7140320  25.7020502  94.1225737  50.6619671  26.2875672  92.7274605
  49.5451506  42.9193813  87.3648799  49.7848105  43.5512337  88.0427818
  48.7020703  42.5681853  87.6514159  60.5278215  34.0671483  92.8029060
  59.6404994  33.7297404  92.9255459  61.0976766  33.3354514  93.0397825
  42.1807362  30.3995574  86.1272111  42.8678402  30.0857304  85.5393127
  42.0255491  31.3036939  85.8539363  46.9842084  25.2885771  90.5557135
  46.9000273  24.6811440  89.8207545  46.1624791  25.7794789  90.5566631
  54.0579368  38.7272935  89.7690303  53.9849540  39.5327906  90.2809608
  53.6156761  38.9264901  88.9438325  57.1565798  23.7739334  85.9227330
  57.6534498  23.0209297  85.6028400  56.3852780  23.8103651  85.3570540
  65.0095555  29.4779700  87.5645622  64.9985432  30.3604415  87.1939555
  64.1412935  29.1251251  87.3700159  56.5178052  38.6259769  91.9248462
  57.2306024  39.2607234  91.8524363  56.0268080  38.7223635  91.1088464
  53.7400767  25.9156717  85.6499015  53.3698554  25.3627758  86.3379920
  54.2359859  25.3114851  85.0974015  61.6268130  28.3728341  84.0315788
  62.0928582  29.2056333  83.9576090  62.0775631  27.9073323  84.7361046
  51.5689965  36.3754212  92.7454033  52.2699425  37.0090695  92.8983427
  51.0985080  36.7168944  91.9849672  59.5984793  20.7408928  88.0706689
  58.6847873  20.9713155  88.2388896  60.0277894  20.8247372  88.9220721
  59.3691251  28.9298820  90.5706583  58.7162702  29.1774727  89.9159036
  59.7471631  28.1162958  90.2369060  55.4178824  29.6718631  97.0572620
  54.7419461  29.5712760  97.7274995  56.2406458  29.5157845  97.5208617
  47.1657683  35.9090567  89.6785135  47.7511120  35.1634255  89.8113040
  46.9682522  36.2194524  90.5621799  41.7575338  28.4796168  88.3989579
  41.7959438  27.9459758  89.1926697  41.2515631  27.9531373  87.7800556
  54.1601607  40.9785558  91.2930236  54.7119915  41.1417180  92.0579321
  54.5007801  41.5689996  90.6210261  49.1366100  23.3260708  91.8952121
  49.2007427  24.1875539  91.4829519  49.0733221  22.7134710  91.1624479
  48.6118373  25.3983841  95.5425155  49.2390412  25.0160918  96.1562679
  47.7546292  25.1798043  95.9080848  59.0112482  35.8046816  97.1478891
  59.5552386  36.4176774  96.6533845  58.4299326  36.3626394  97.6645904
  45.3883916  27.2060270  81.4743510  45.6837357  26.2970948  81.4210564
  44.4871951  27.1848009  81.1524512  48.9178163  25.2816266  87.4571059
  48.1964748  25.8952234  87.3178532  49.7071418  25.8174031  87.3787705
  51.7204476  22.6170693  93.7311710  52.2438878  22.8632989  94.4938020
  51.5016810  23.4490728  93.3114848  47.1171757  24.8874368  81.5982835
  46.7884463  24.0071746  81.4157941  47.4711128  24.8322036  82.4859224
  50.2313580  25.1747337  81.9658313  50.5709653  25.7033259  81.2436921
  50.6785701  25.5127743  82.7416879  52.9257021  23.5584388  91.4161381
  52.5853842  22.7592201  91.8182061  52.2196028  23.8586099  90.8438214
  53.5773493  20.6433700  89.8688704  54.3999562  20.1694179  89.7467594
  53.8211557  21.4224184  90.3687390  52.2181728  23.6721959  80.1651606
  52.9390090  24.0503212  79.6615322  51.5947032  24.3910836  80.2686584
  56.3612850  24.3767108  81.1009938  56.5776465  25.2591746  80.7998766
  55.8806918  23.9853321  80.3715580  51.1012072  27.3352821  87.6780682
  50.9556653  27.6493124  88.5704964  50.6237276  27.9537721  87.1251581
  52.9608455  24.3255369  87.7261572  52.9470024  23.4296462  87.3893870
  53.6780883  24.3326033  88.3599858  54.8134585  24.7592709  89.7714699
  54.5552363  25.6809780  89.7699030  54.2819626  24.3623144  90.4615164
  45.5757734  29.8758165  90.6168344  45.0311202  30.6517973  90.7488618
  46.4537084  30.2228970  90.4587465  52.3645351  23.2069749  82.9949142
  52.4861262  22.2786396  83.1940030  52.0747393  23.2208435  82.0827458
  55.2336541  20.8924660  86.1315862  55.2558238  20.9563993  85.1767842
  55.6504600  20.0529168  86.3256368  65.6120165  30.6279919  84.1695085
  66.0551311  29.8787245  83.7714208  64.7346676  30.6190056  83.7868817
  46.3623756  29.0028062  93.5098501  45.6205492  29.1510697  94.0963131
  46.0416500  29.2636327  92.6465250  54.3067419  38.5444040  93.3078891
  54.6154545  38.2993187  94.1801590  55.1042901  38.7490678  92.8197761
  46.8080370  36.8893490  85.5408895  47.6338389  36.5897262  85.1607539
  46.4574422  36.1201113  85.9898684  51.7761903  36.2419959  87.6106569
  51.1541912  35.5790664  87.3108797  52.4466770  36.2681091  86.9280217
  45.0088975  34.8079817  86.4997829  44.1720883  34.3801991  86.3181830
  44.9812620  35.0012260  87.4368620  51.8486430  24.7201747  97.2039075
  51.8974586  25.5963870  96.8216844  52.3908944  24.1779140  96.6310718
  62.3341276  35.2642870  96.4840212  61.5436820  35.2467009  95.9444711
  62.0974630  35.8031164  97.2389248  62.4539151  32.1135336  93.7972940
  62.5037156  31.9485344  94.7388463  62.3453074  31.2462595  93.4070821
  59.7442913  28.0966264  95.1132247  60.6452776  27.9572729  94.8216245
  59.8190888  28.2620719  96.0530425  54.0785719  25.4733119  93.9585433
  53.2089028  25.7666685  93.6868022  54.3145199  26.0573564  94.6792697
  63.9557348  34.5332278  94.0414962  63.6642156  34.8962258  94.8778423
  63.3429479  33.8199286  93.8628294  65.1553030  32.0985158  86.5617532
  65.9899921  32.5374962  86.7255093  65.2912159  31.6223811  85.7425778
  62.2044536  29.6564892  92.5095020  62.6798658  29.8492539  91.7013871
  61.2810101  29.7124078  92.2638404  49.0928043  30.8189060  82.0926098
  48.8474085  29.9151390  82.2906308  49.2623957  30.8206210  81.1505576
  56.7824753  21.6912736  91.4750854  57.3006696  22.4273763  91.1497342
  56.4279885  21.9976729  92.3097613  48.3623690  26.5517417  79.5912260
  47.6692935  26.6261772  78.9352296  48.1175442  25.7877761  80.1133777
  57.0337347  18.1113019  86.9951750  57.3139100  17.4436208  87.6212177
  57.8187954  18.3042114  86.4826414  60.9046205  26.5330653  90.7423326
  61.8563628  26.6328750  90.7635550  60.7349655  25.7408921  91.2521410
  58.9260584  23.6186236  90.9282726  58.3310517  23.8991249  90.2329215
  58.6410281  24.1080137  91.6999468  63.3834283  29.7536772  89.8565625
  63.3510603  28.8152773  90.0425309  63.9934906  29.8320809  89.1231450
  63.5328771  26.5447816  89.9023908  63.0167820  25.7606272  89.7153837
  64.4168720  26.2166532  90.0670428  61.1939498  20.2888831  85.8619721
  60.9964319  19.9803919  86.7463053  61.8039204  21.0150470  85.9917651
  69.2010833  30.8152779  88.9971662  69.9314221  30.5538067  89.5579365
  68.5917778  30.0781501  89.0373730  67.2826130  28.9560642  89.5946113
  66.5559293  28.8216607  88.9862605  66.8673417  29.2637470  90.4002831
  55.1056306  32.6750571  97.3593486  56.0259316  32.8529170  97.5533533
  55.0705889  31.7306617  97.2073185  44.3238471  27.8689165  86.2846761
  44.0041256  27.0154473  85.9921135  43.7771899  28.0837743  87.0404728
  48.1018379  30.5851606  90.0016267  48.3204389  31.5168714  90.0204301
  48.5144153  30.2259580  90.7871071  55.0222597  21.0919691  81.9891956
  54.2123325  20.7466776  82.3647202  55.7107013  20.7827235  82.5779567
  56.9513145  20.1697738  83.6116252  57.5044183  20.5893192  84.2706275
  57.1883231  19.2433486  83.6539208  52.9746244  26.1584812  99.3919016
  52.8742971  27.1079169  99.3231107  52.7567786  25.8303051  98.5195086
  44.1926731  31.4892077  88.2539882  43.4990203  31.0746029  87.7409837
  44.9399722  31.5312613  87.6573301  60.3291952  22.2798263  83.1194917
  59.7490621  22.9383067  82.7372969  60.0627885  21.4575608  82.7082334
  58.7795518  21.6803321  85.3216237  59.2795297  21.7919856  84.5130556
  59.4231126  21.3764374  85.9617045  52.8377514  29.5881951  98.2084078
  52.3544596  30.3882311  98.4147967  52.9238453  29.5989896  97.2551522
  46.1063474  31.4210330  86.1305897  46.0834162  31.5198018  85.1787780
  46.4164110  32.2675481  86.4523063  48.7650852  33.4786485  90.2452512
  49.7194105  33.4470428  90.1782443  48.5663375  33.0177109  91.0602738
  49.3550234  32.0487601  92.8123309  50.1743123  32.5431680  92.8358147
  49.6287041  31.1319570  92.7840877  59.1116830  24.4398354  82.1751265
  58.2242685  24.7248004  81.9571460  59.5270819  24.2792117  81.3278542
  62.4631366  24.4644875  85.8905604  63.2391756  24.9541327  86.1630221
  61.7379500  24.8902929  86.3477474  64.9003925  25.1772494  86.9479545
  65.4948416  24.9368230  86.2372853  64.9730508  24.4579624  87.5753081
  47.1201080  39.0206105  87.2622710  46.9855548  38.2606506  86.6960708
  46.7033143  39.7447005  86.7951498  62.8962660  25.7442621  83.2151675
  62.6399594  25.3439257  84.0459882  62.2715528  26.4586415  83.0901814
  67.2074997  28.4838695  85.7222966  66.6474555  28.5531884  86.4954528
  66.6018501  28.3079679  85.0022462  50.2770206  39.9175422  87.4741152
  50.1602590  40.8620854  87.3719843  49.4562653  39.6148983  87.8626951
  44.6085148  26.3825735  93.5115506  45.2544012  25.8724689  94.0002732
  44.4002299  27.1194417  94.0858932  57.1338540  33.4506583  99.0107647
  58.0029700  33.6247235  98.6494282  56.6545292  34.2701000  98.8883376
  53.1288758  20.6465780  79.2639403  53.1167428  21.5907620  79.4207673
  54.0212180  20.4635925  78.9698864  51.3024720  40.5703684  90.6897081
  52.2051967  40.6027294  91.0063576  51.0762090  39.6404135  90.7043416
  56.9440878  17.2408557  83.5185339  56.1773274  16.6867043  83.6642022
  57.3551583  17.3130425  84.3799491  48.9482639  23.5293352  97.6090521
  49.8114101  23.1730157  97.8193845  48.3748050  23.1907247  98.2965925
  66.0840505  46.2657489  94.3100652  66.0729146  45.8710287  93.4381156
  66.2461145  45.5323561  94.9034423  62.8047766  49.0494600  93.2579836
  62.5137632  49.9540231  93.1426502  63.4404751  49.0911128  93.9723905
  73.7480712  42.8221896  86.3939108  74.4805883  42.2521113  86.6276938
  72.9920067  42.4343496  86.8345614  71.2706132  36.5343470  90.8533717
  70.9389457  37.4038881  90.6294932  70.6751745  36.2179754  91.5327747
  67.7637651  48.7356016  90.2529630  67.4638374  49.6381055  90.1445437
  67.4188711  48.4688199  91.1050782  71.1634795  41.2538556  87.9327067
  70.2551673  41.1853964  87.6385828  71.1122391  41.7310501  88.7608892
  65.2375661  42.6728202  95.8761964  64.4608995  43.2322122  95.8664829
  65.8766224  43.1584985  96.3976834  73.0296442  39.4554994  89.7104941
  72.3870822  39.7487528  89.0644735  72.5251370  39.3407915  90.5158137
  63.4922033  45.4813655  95.4379931  64.2336718  46.0198699  95.1614755
  62.7859019  46.1079944  95.5951483  68.9677373  47.6242795  94.0352093
  69.3760729  47.1825206  93.2906725  68.2454634  47.0495423  94.2886286
  68.4707888  40.2219771  93.0666823  68.2268820  40.9761831  92.5301099
  68.7467819  40.6005118  93.9014070  70.4246351  46.7658383  91.7444089
  70.6363246  47.4090143  91.0678470  70.3776099  45.9320699  91.2766019
  68.0272580  39.3776204  88.6480661  67.1657059  39.6757457  88.9397399
  68.0535015  39.5946602  87.7161694  62.2283397  42.6353303  96.2395241
  61.5982058  43.3169584  96.4730638  62.1219485  42.5236385  95.2948379
  71.5392179  49.6430338  89.9166446  72.3609623  49.2410526  89.6349128
  71.5354582  49.5398573  90.8682562  65.3048782  49.1914382  92.0727157
  65.3693215  49.6534789  92.9085329  64.5959706  48.5611747  92.2009467
  79.6298172  45.9869087  86.2651418  78.8761880  45.4176485  86.1095422
  79.7645713  45.9531751  87.2122052  61.5064140  36.9374069  98.6020492
  61.1131085  36.3840268  99.2768136  62.3230280  37.2484647  98.9927010
  64.4232101  38.3531948  96.1940749  65.1641814  38.9539101  96.1145211
  64.6550024  37.6109586  95.6358791  59.5673439  43.5388315  94.4718978
  59.4526954  42.6373573  94.7726077  58.7117957  43.7852012  94.1203795
  66.6465277  51.4806056  96.0706479  66.2029131  50.6942434  95.7527384
  67.3082490  51.6685206  95.4050370  61.4052398  53.0101857  90.5967158
  61.9559823  52.8818921  89.8244152  60.5663874  53.3096746  90.2462050
  68.7446515  51.7608856  94.0987880  68.7264990  52.5817737  93.6068150
  69.6666435  51.6362931  94.3238022  65.2019569  49.2752985  94.9411389
  65.7347906  48.5141273  94.7110697  64.6733650  48.9826637  95.6835543
  68.3689264  34.3813051  90.4705030  68.0253533  35.2714693  90.3944141
  68.7368226  34.1914709  89.6074615  67.4485804  36.7517706  88.4354264
  66.9450600  36.7147841  87.6222069  67.7416411  37.6610449  88.4950920
  70.0665302  40.8630358  84.9780999  69.3288059  40.3507744  85.3091241
  70.3192076  40.4230740  84.1664276  70.1676929  33.6406610  85.5722768
  70.4735806  32.7803974  85.2848683  70.8929534  34.2324230  85.3721762
  67.9764581  43.0179287  92.6704232  68.3313968  43.2450761  93.5298698
  68.6236712  43.3497664  92.0481487  73.7331697  48.2074250  88.3864833
  74.1668204  48.1149539  89.2347887  74.4463278  48.1831751  87.7484849
  67.4659592  51.8076344  89.9197933  67.5196614  52.3767281  90.6875649
  66.5974374  51.9778230  89.5551970  74.5947247  48.2497951  90.9197718
  74.7883137  49.1543762  91.1656993  74.4947865  47.7905370  91.7536303
  66.2483558  38.1355842  93.4188045  65.6011473  38.8345791  93.3252522
  67.0184573  38.5691986  93.7864293  69.6562355  48.4004694  96.4938599
  69.5047862  48.1715245  95.5768682  69.6467035  49.3575295  96.5069944
  66.4247692  45.9736607  91.4784865  67.3539752  46.1247766  91.3053832
  66.0038722  46.0620627  90.6233511  65.2236024  49.9987271  89.2483403
  65.0847109  49.6306055  90.1209341  64.4350620  50.5134910  89.0767360
  60.7485483  44.7836504  92.1624822  60.6105281  44.0516743  92.7636361
  61.6590406  44.6945404  91.8809009  63.3767783  44.4956463  91.6508501
  64.0867402  43.8549655  91.6095120  63.3337092  44.7469358  92.5734682
  71.3654562  51.4323816  94.5715080  71.3067108  50.7483036  93.9045663
  71.7674081  52.1742806  94.1195706  71.3671969  49.3963400  92.8029060
  70.4798748  49.0589322  92.9255459  71.9370520  48.6646432  93.0397825
  53.0201117  45.7287492  86.1272111  53.7072156  45.4149222  85.5393127
  52.8649245  46.6328857  85.8539363  64.8973123  54.0564853  89.7690303
  64.8243294  54.8619824  90.2809608  64.4550516  54.2556818  88.9438325
  75.8489310  44.8071618  87.5645622  75.8379186  45.6896333  87.1939555
  74.9806689  44.4543168  87.3700159  67.3571806  53.9551687  91.9248462
  68.0699779  54.5899151  91.8524363  66.8661835  54.0515553  91.1088464
  62.4083720  51.7046130  92.7454033  63.1093179  52.3382613  92.8983427
  61.9378835  52.0460862  91.9849672  70.4378547  36.0700846  88.0706689
  69.5241627  36.3005072  88.2388896  70.8671649  36.1539290  88.9220721
  70.2085006  44.2590738  90.5706583  69.5556456  44.5066645  89.9159036
  70.5865386  43.4454876  90.2369060  66.2572579  45.0010549  97.0572620
  65.5813216  44.9004678  97.7274995  67.0800213  44.8449762  97.5208617
  58.0051438  51.2382485  89.6785135  58.5904875  50.4926173  89.8113040
  57.8076276  51.5486442  90.5621799  52.5969093  43.8088085  88.3989579
  52.6353192  43.2751676  89.1926697  52.0909385  43.2823291  87.7800556
  64.9995362  56.3077476  91.2930236  65.5513670  56.4709098  92.0579321
  65.3401555  56.8981914  90.6210261  59.4512127  40.7275758  95.5425155
  60.0784166  40.3452836  96.1562679  58.5940046  40.5089960  95.9080848
  69.8506236  51.1338734  97.1478891  70.3946140  51.7468692  96.6533845
  69.2693081  51.6918312  97.6645904  68.1363749  54.2559452  88.2793918
  68.0114888  53.4549191  87.7704864  68.7942840  54.7505645  87.7907888
  70.1998657  52.0568472  89.9073468  69.2528993  51.9373823  89.8351795
  70.5481430  51.1690970  89.9899730  62.5598231  37.9462611  93.7311710
  63.0832633  38.1924907  94.4938020  62.3410564  38.7782645  93.3114848
  70.8079213  52.6749747  87.1942693  71.7325760  52.4692608  87.0567145
  70.6394516  52.4266148  88.1032035  56.4151489  45.2050083  90.6168344
  55.8704957  45.9809891  90.7488618  57.2930838  45.5520888  90.4587465
  76.4513920  45.9571837  84.1695085  76.8945066  45.2079162  83.7714208
  75.5740430  45.9481973  83.7868817  57.2017510  44.3319979  93.5098501
  56.4599246  44.4802615  94.0963131  56.8810255  44.5928245  92.6465250
  65.1461173  53.8735958  93.3078891  65.4548299  53.6285104  94.1801590
  65.9436655  54.0782596  92.8197761  57.6474124  52.2185408  85.5408895
  58.4732144  51.9189180  85.1607539  57.2968176  51.4493031  85.9898684
  55.8482729  50.1371735  86.4997829  55.0114637  49.7093909  86.3181830
  55.8206375  50.3304178  87.4368620  62.6880185  40.0493664  97.2039075
  62.7368340  40.9255787  96.8216844  63.2302699  39.5071057  96.6310718
  73.1735030  50.5934788  96.4840212  72.3830574  50.5758927  95.9444711
  72.9368385  51.1323081  97.2389248  73.2932905  47.4427254  93.7972940
  73.3430910  47.2777261  94.7388463  73.1846829  46.5754513  93.4070821
  70.5836668  43.4258182  95.1132247  71.4846531  43.2864647  94.8216245
  70.6584642  43.5912637  96.0530425  64.9179473  40.8025037  93.9585433
  64.0482783  41.0958603  93.6868022  65.1538954  41.3865482  94.6792697
  74.7951102  49.8624196  94.0414962  74.5035911  50.2254176  94.8778423
  74.1823234  49.1491204  93.8628294  73.0438291  44.9856810  92.5095020
  73.5192412  45.1784456  91.7013871  72.1203856  45.0415996  92.2638404
  67.6218507  37.0204654  91.4750854  68.1400451  37.7565681  91.1497342
  67.2673640  37.3268647  92.3097613  67.8731101  33.4404936  86.9951750
  68.1532855  32.7728125  87.6212177  68.6581708  33.6334032  86.4826414
  71.7439960  41.8622570  90.7423326  72.6957382  41.9620668  90.7635550
  71.5743410  41.0700839  91.2521410  69.7654339  38.9478153  90.9282726
  69.1704271  39.2283166  90.2329215  69.4804036  39.4372054  91.6999468
  74.2228037  45.0828690  89.8565625  74.1904357  44.1444691  90.0425309
  74.8328661  45.1612727  89.1231450  74.3722526  41.8739733  89.9023908
  73.8561574  41.0898190  89.7153837  75.2562474  41.5458450  90.0670428
  72.0333253  35.6180749  85.8619721  71.8358074  35.3095837  86.7463053
  72.6432958  36.3442388  85.9917651  80.0404587  46.1444697  88.9971662
  80.7707976  45.8829985  89.5579365  79.4311533  45.4073419  89.0373730
  78.1219884  44.2852559  89.5946113  77.3953048  44.1508524  88.9862605
  77.7067171  44.5929388  90.4002831  65.9450061  48.0042489  97.3593486
  66.8653070  48.1821088  97.5533533  65.9099644  47.0598534  97.2073185
  58.9412133  45.9143524  90.0016267  59.1598143  46.8460632  90.0204301
  59.3537907  45.5551498  90.7871071  63.8139999  41.4876729  99.3919016
  63.7136725  42.4371086  99.3231107  63.5961541  41.1594968  98.5195086
  55.0320486  46.8183994  88.2539882  54.3383957  46.4037947  87.7409837
  55.7793477  46.8604531  87.6573301  69.6189273  37.0095239  85.3216237
  70.1189051  37.1211773  84.5130556  70.2624881  36.7056292  85.9617045
  63.6771269  44.9173868  98.2084078  63.1938350  45.7174228  98.4147967
  63.7632208  44.9281813  97.2551522  59.6044606  48.8078403  90.2452512
  60.5587860  48.7762345  90.1782443  59.4057130  48.3469027  91.0602738
  60.1943988  47.3779519  92.8123309  61.0136877  47.8723598  92.8358147
  60.4680796  46.4611487  92.7840877  73.3025121  39.7936792  85.8905604
  74.0785511  40.2833245  86.1630221  72.5773255  40.2194847  86.3477474
  75.7397679  40.5064412  86.9479545  76.3342170  40.2660148  86.2372853
  75.8124263  39.7871542  87.5753081  78.0468752  43.8130612  85.7222966
  77.4868310  43.8823802  86.4954528  77.4412255  43.6371597  85.0022462
  55.4478902  41.7117653  93.5115506  56.0937766  41.2016607  94.0002732
  55.2396054  42.4486335  94.0858932  67.9732295  48.7798500  99.0107647
  68.8423454  48.9539153  98.6494282  67.4939046  49.5992917  98.8883376
  62.1418475  55.8995601  90.6897081  63.0445722  55.9319212  91.0063576
  61.9155845  54.9696052  90.7043416  67.7834632  32.5700474  83.5185339
  67.0167028  32.0158961  83.6642022  68.1945337  32.6422343  84.3799491
  59.7876393  38.8585270  97.6090521  60.6507855  38.5022075  97.8193845
  59.2141804  38.5199165  98.2965925  76.4414477  60.4414554  88.3514446
  76.1032988  60.3255619  87.4634981  77.3104245  60.0405720  88.3315453
  76.9234260  61.5949406  94.3100652  76.9122900  61.2002204  93.4381156
  77.0854899  60.8615479  94.9034423  69.8465724  63.7901222  87.1795558
  70.6387016  63.4492047  86.7641857  70.0862374  63.8996198  88.0997711
  73.6441521  64.3786518  93.2579836  73.3531387  65.2832149  93.1426502
  74.2798505  64.4203046  93.9723905  74.5697728  61.7563367  89.8481196
  75.1661300  61.5319389  89.1338158  74.6272699  61.0148112  90.4506643
  82.1099886  51.8635388  90.8533717  81.7783211  52.7330798  90.6294932
  81.5145500  51.5471672  91.5327747  78.6031406  64.0647934  90.2529630
  78.3032129  64.9672972  90.1445437  78.2582465  63.7980117  91.1050782
  72.0543887  60.5161730  86.2866334  71.1294384  60.3837944  86.4944026
  72.3028301  61.2955950  86.7836276  69.4152698  60.1595004  87.1210123
  69.5445080  60.4129483  88.0349535  68.7350150  60.7522712  86.8014778
  73.5852186  70.8292254  83.2200597  73.5076215  71.7800079  83.2989078
  72.9813829  70.4838126  83.8775524  76.0769415  58.0020119  95.8761964
  75.3002750  58.5614039  95.8664829  76.7159979  58.4876902  96.3976834
  83.8690196  54.7846912  89.7104941  83.2264576  55.0779445  89.0644735
  83.3645125  54.6699832  90.5158137  74.3315788  60.8105573  95.4379931
  75.0730472  61.3490617  95.1614755  73.6252773  61.4371861  95.5951483
  79.8071127  62.9534713  94.0352093  80.2154483  62.5117124  93.2906725
  79.0848389  62.3787341  94.2886286  76.1602197  57.8907320  91.4085650
  77.0063393  58.3146733  91.5520299  76.1000835  57.2340944  92.1024213
  79.3101643  55.5511688  93.0666823  79.0662575  56.3053749  92.5301099
  79.5861573  55.9297036  93.9014070  78.8666335  54.7068121  88.6480661
  78.0050814  55.0049375  88.9397399  78.8928769  54.9238520  87.7161694
  72.5751985  62.7981793  87.9934230  73.1453342  63.2269062  87.3551714
  73.1660097  62.5164378  88.6918416  73.0677152  57.9645221  96.2395241
  72.4375812  58.6461502  96.4730638  72.9613239  57.8528302  95.2948379
  68.3622124  57.6317017  87.1661165  67.5721178  57.8874545  86.6901276
  68.8533371  58.4465355  87.2713206  70.3136869  57.9961596  84.1244642
  69.5168033  58.1080290  84.6428138  70.0862462  58.3348248  83.2585533
  76.1442537  64.5206299  92.0727157  76.2086969  64.9826707  92.9085329
  75.4353461  63.8903664  92.2009467  66.6459827  57.8847507  89.5976156
  66.8967865  58.7694517  89.8633732  67.1819375  57.7052109  88.8251248
  90.4691927  61.3161005  86.2651418  89.7155635  60.7468403  86.1095422
  90.6039468  61.2823669  87.2122052  75.8590555  66.1874407  81.9406137
  75.7236229  67.0325943  82.3690985  76.4000367  66.3893684  81.1772071
  72.3457894  52.2665987  98.6020492  71.9524840  51.7132185  99.2768136
  73.1624035  52.5776565  98.9927010  69.3119952  63.7049845  82.5134062
  69.8244473  64.4993095  82.6639627  69.9642665  63.0076135  82.4467664
  71.1214837  66.8215601  84.5956815  71.2981465  67.7433566  84.4077799
  71.9171670  66.5074020  85.0251195  75.2625855  53.6823866  96.1940749
  76.0035569  54.2831019  96.1145211  75.4943778  52.9401504  95.6358791
  70.4067193  58.8680233  94.4718978  70.2920708  57.9665490  94.7726077
  69.5511711  59.1143930  94.1203795  77.4859031  66.8097973  96.0706479
  77.0422885  66.0234352  95.7527384  78.1476245  66.9977124  95.4050370
  72.2446152  68.3393775  90.5967158  72.7953577  68.2110838  89.8244152
  71.4057628  68.6388664  90.2462050  79.5840269  67.0900773  94.0987880
  79.5658744  67.9109654  93.6068150  80.5060189  66.9654848  94.3238022
  76.0413323  64.6044903  94.9411389  76.5741660  63.8433191  94.7110697
  75.5127404  64.3118555  95.6835543  79.2083018  49.7104969  90.4705030
  78.8647288  50.6006610  90.3944141  79.5761981  49.5206626  89.6074615
  67.2768869  62.0338499  83.2893633  68.1144091  62.4435508  83.0727340
  67.4547136  61.0937941  83.2593826  78.2879559  52.0809624  88.4354264
  77.7844354  52.0439759  87.6222069  78.5810165  52.9902367  88.4950920
  77.4066036  63.7330895  82.4530201  76.8787397  62.9983655  82.1403438
  76.9053539  64.5105572  82.2070169  77.6745172  57.7573744  87.8659529
  76.7567733  57.9788691  87.7081217  78.0905315  57.8320054  87.0071237
  80.4059076  67.1006787  84.6830150  80.6982051  67.6611844  83.9642515
  80.9157697  67.3935348  85.4383309  81.0070684  48.9698528  85.5722768
  81.3129561  48.1095891  85.2848683  81.7323289  49.5616148  85.3721762
  67.2995040  59.3729214  83.9604366  67.1019440  58.7798575  83.2355433
  66.7441704  59.0681425  84.6780305  75.2791764  59.2652321  86.0798959
  75.3340373  58.3126157  86.0041436  74.4682966  59.4211760  86.5640258
  75.3692701  67.8787138  85.7723603  75.3268880  68.1047984  84.8432135
  76.2855400  67.6450512  85.9209404  78.8158335  58.3471205  92.6704232
  79.1707723  58.5742678  93.5298698  79.4630466  58.6789582  92.0481487
  72.7098198  55.4547736  89.4550573  73.3497578  55.3136495  88.7573536
  71.8775729  55.1682250  89.0789175  73.4858502  64.7550167  85.5685565
  74.2799101  64.2600487  85.3668140  72.7750195  64.2268030  85.2053271
  78.3053347  67.1368262  89.9197933  78.3590369  67.7059198  90.6875649
  77.4368128  67.3070147  89.5551970  71.1851740  56.8385818  91.4022384
  71.8574793  56.6303181  90.7535033  70.3581527  56.6407904  90.9627617
  85.4341001  63.5789869  90.9197718  85.6276891  64.4835679  91.1656993
  85.3341619  63.1197288  91.7536303  77.0877312  53.4647759  93.4188045
  76.4405227  54.1637709  93.3252522  77.8578327  53.8983903  93.7864293
  80.4956110  63.7296611  96.4938599  80.3441616  63.5007163  95.5768682
  80.4860789  64.6867213  96.5069944  77.2641446  61.3028524  91.4784865
  78.1933506  61.4539684  91.3053832  76.8432476  61.3912545  90.6233511
  76.0629778  65.3279189  89.2483403  75.9240864  64.9597973  90.1209341
  75.2744374  65.8426828  89.0767360  76.6577930  70.4288285  80.5908939
  76.8329686  69.9576328  81.4054562  75.9710718  71.0554051  80.8190200
  77.6134993  64.7060791  86.6372240  77.2784826  64.6661561  87.5329890
  77.1138939  64.0405507  86.1642651  71.5879237  60.1128421  92.1624822
  71.4499035  59.3808660  92.7636361  72.4984161  60.0237321  91.8809009
  74.2161538  59.8248381  91.6508501  74.9261156  59.1841573  91.6095120
  74.1730846  60.0761276  92.5734682  82.2048317  66.7615734  94.5715080
  82.1460863  66.0774954  93.9045663  82.6067835  67.5034724  94.1195706
  72.9290472  56.8113599  93.4704141  72.3927829  56.3604337  94.1225737
  72.3407180  56.9459507  92.7274605  71.2239015  73.5777648  87.3648799
  71.4635614  74.2096172  88.0427818  70.3808212  73.2265688  87.6514159
  82.2065724  64.7255318  92.8029060  81.3192503  64.3881240  92.9255459
  82.7764275  63.9938349  93.0397825  63.8594871  61.0579410  86.1272111
  64.5465911  60.7441140  85.5393127  63.7043000  61.9620774  85.8539363
  68.6629593  55.9469606  90.5557135  68.5787782  55.3395276  89.8207545
  67.8412300  56.4378625  90.5566631  75.7366877  69.3856770  89.7690303
  75.6637049  70.1911742  90.2809608  75.2944270  69.5848736  88.9438325
  75.5256657  68.6228540  83.2793125  74.7424179  69.1650221  83.3731349
  76.2249402  69.1402520  83.6787366  78.1965561  69.2843604  91.9248462
  78.9093533  69.9191069  91.8524363  77.7055589  69.3807470  91.1088464
  75.4188276  56.5740553  85.6499015  75.0486063  56.0211593  86.3379920
  75.9147368  55.9698686  85.0974015  73.2477474  67.0338048  92.7454033
  73.9486934  67.6674531  92.8983427  72.7772589  67.3752779  91.9849672
  81.2772302  51.3992763  88.0706689  80.3635382  51.6296990  88.2388896
  81.7065403  51.4831207  88.9220721  78.0085934  69.6242348  84.6734753
  78.1908329  68.8064004  85.1362506  78.8318920  69.8410041  84.2359643
  77.0966333  60.3302466  97.0572620  76.4206970  60.2296596  97.7274995
  77.9193967  60.1741680  97.5208617  68.8445192  66.5674403  89.6785135
  69.4298629  65.8218091  89.8113040  68.6470031  66.8778360  90.5621799
  71.6983848  69.6025650  84.6947578  71.0294223  70.0871778  84.2111618
  71.5596717  69.8494871  85.6090956  63.4362847  59.1380003  88.3989579
  63.4746947  58.6043594  89.1926697  62.9303140  58.6115209  87.7800556
  75.8389116  71.6369394  91.2930236  76.3907424  71.8001015  92.0579321
  76.1795310  72.2273832  90.6210261  70.8153609  53.9844544  91.8952121
  70.8794936  54.8459374  91.4829519  70.7520730  53.3718545  91.1624479
  70.2905882  56.0567676  95.5425155  70.9177921  55.6744753  96.1562679
  69.4333801  55.8381878  95.9080848  80.6899991  66.4630651  97.1478891
  81.2339895  67.0760610  96.6533845  80.1086835  67.0210230  97.6645904
  78.9757503  69.5851369  88.2793918  78.8508643  68.7841109  87.7704864
  79.6336595  70.0797563  87.7907888  70.5965672  55.9400102  87.4571059
  69.8752257  56.5536069  87.3178532  71.3858927  56.4757867  87.3787705
  81.0392412  67.3860389  89.9073468  80.0922747  67.2665741  89.8351795
  81.3875185  66.4982887  89.9899730  73.3991985  53.2754528  93.7311710
  73.9226387  53.5216825  94.4938020  73.1804318  54.1074563  93.3114848
  78.0438845  67.1813106  86.1077821  77.8963808  66.2529813  86.2885391
  78.8692339  67.2033196  85.6234896  81.6472967  68.0041664  87.1942693
  82.5719514  67.7984526  87.0567145  81.4788270  67.7558065  88.1032035
  74.6044530  54.2168223  91.4161381  74.2641351  53.4176036  91.8182061
  73.8983537  54.5169934  90.8438214  75.2561002  51.3017536  89.8688704
  76.0787071  50.8278014  89.7467594  75.4999066  52.0808020  90.3687390
  72.7799581  57.9936656  87.6780682  72.6344162  58.3076960  88.5704964
  72.3024784  58.6121557  87.1251581  74.6395964  54.9839204  87.7261572
  74.6257532  54.0880298  87.3893870  75.3568392  54.9909868  88.3599858
  76.4922094  55.4176545  89.7714699  76.2339872  56.3393615  89.7699030
  75.9607135  55.0206979  90.4615164  67.2545243  60.5342001  90.6168344
  66.7098711  61.3101809  90.7488618  68.1324593  60.8812805  90.4587465
  68.0411265  59.6611897  93.5098501  67.2993001  59.8094532  94.0963131
  67.7204009  59.9220163  92.6465250  75.9854928  69.2027875  93.3078891
  76.2942054  68.9577022  94.1801590  76.7830410  69.4074514  92.8197761
  76.0075540  71.3565785  85.5384267  75.5680530  70.8642164  86.2317124
  76.7583657  70.8138753  85.2976342  68.4867879  67.5477326  85.5408895
  69.3125898  67.2481098  85.1607539  68.1361931  66.7784948  85.9898684
  73.4549412  66.9003794  87.6106569  72.8329421  66.2374499  87.3108797
  74.1254279  66.9264926  86.9280217  66.6876484  65.4663652  86.4997829
  65.8508392  65.0385827  86.3181830  66.6600129  65.6596096  87.4368620
  73.5273939  55.3785582  97.2039075  73.5762095  56.2547705  96.8216844
  74.0696453  54.8362975  96.6310718  84.0128785  65.9226705  96.4840212
  83.2224329  65.9050844  95.9444711  83.7762139  66.4614999  97.2389248
  84.1326660  62.7719172  93.7972940  84.1824665  62.6069179  94.7388463
  84.0240583  61.9046431  93.4070821  81.4230422  58.7550100  95.1132247
  82.3240285  58.6156565  94.8216245  81.4978397  58.9204555  96.0530425
  75.7573228  56.1316954  93.9585433  74.8876537  56.4250521  93.6868022
  75.9932708  56.7157399  94.6792697  85.6344857  65.1916113  94.0414962
  85.3429665  65.5546094  94.8778423  85.0216988  64.4783122  93.8628294
  83.8832045  60.3148728  92.5095020  84.3586167  60.5076374  91.7013871
  82.9597610  60.3707914  92.2638404  78.4612261  52.3496571  91.4750854
  78.9794205  53.0857598  91.1497342  78.1067394  52.6560565  92.3097613
  78.7124856  48.7696854  86.9951750  78.9926609  48.1020043  87.6212177
  79.4975463  48.9625950  86.4826414  82.5833714  57.1914488  90.7423326
  83.5351137  57.2912586  90.7635550  82.4137164  56.3992756  91.2521410
  80.6048093  54.2770071  90.9282726  80.0098026  54.5575084  90.2329215
  80.3197790  54.7663972  91.6999468  85.2116280  57.2031651  89.9023908
  84.6955329  56.4190108  89.7153837  86.0956229  56.8750368  90.0670428
  82.8727007  50.9472667  85.8619721  82.6751828  50.6387755  86.7463053
  83.4826713  51.6734306  85.9917651  90.8798342  61.4736614  88.9971662
  91.6101730  61.2121903  89.5579365  90.2705287  60.7365336  89.0373730
  88.9613639  59.6144477  89.5946113  88.2346802  59.4800442  88.9862605
  88.5460926  59.9221306  90.4002831  76.7843815  63.3334407  97.3593486
  77.7046825  63.5113006  97.5533533  76.7493398  62.3890452  97.2073185
  66.0025980  58.5273000  86.2846761  65.6828765  57.6738309  85.9921135
  65.4559408  58.7421579  87.0404728  69.7805888  61.2435441  90.0016267
  69.9991898  62.1752549  90.0204301  70.1931662  60.8843416  90.7871071
  74.6533753  56.8168647  99.3919016  74.5530480  57.7663004  99.3231107
  74.4355295  56.4886886  98.5195086  65.8714240  62.1475912  88.2539882
  65.1777712  61.7329865  87.7409837  66.6187231  62.1896448  87.6573301
  74.5165023  60.2465786  98.2084078  74.0332105  61.0466146  98.4147967
  74.6025962  60.2573731  97.2551522  67.7850983  62.0794166  86.1305897
  67.7621671  62.1781853  85.1787780  68.0951619  62.9259316  86.4523063
  70.4438361  64.1370321  90.2452512  71.3981614  64.1054263  90.1782443
  70.2450884  63.6760944  91.0602738  71.0337743  62.7071437  92.8123309
  71.8530632  63.2015515  92.8358147  71.3074550  61.7903405  92.7840877
  86.5791434  55.8356329  86.9479545  87.1735924  55.5952065  86.2372853
  86.6518017  55.1163460  87.5753081  68.7988589  69.6789940  87.2622710
  68.6643057  68.9190341  86.6960708  68.3820652  70.4030840  86.7951498
  88.8862506  59.1422530  85.7222966  88.3262064  59.2115719  86.4954528
  88.2806010  58.9663515  85.0022462  71.9557715  70.5759257  87.4741152
  71.8390099  71.5204690  87.3719843  71.1350162  70.2732819  87.8626951
  66.2872657  57.0409571  93.5115506  66.9331521  56.5308525  94.0002732
  66.0789808  57.7778252  94.0858932  78.8126049  64.1090418  99.0107647
  79.6817209  64.2831070  98.6494282  78.3332801  64.9284835  98.8883376
  72.9812229  71.2287519  90.6897081  73.8839476  71.2611129  91.0063576
  72.7549599  70.2987970  90.7043416  74.7365831  69.9818506  87.3507159
  73.7861462  69.9820367  87.2371532  75.0398318  69.2351240  86.8343194
  70.6270148  54.1877188  97.6090521  71.4901610  53.8313993  97.8193845
  70.0535559  53.8491083  98.2965925  90.4718525  75.8179044  88.4152922
  91.1096935  75.6985791  87.7116262  90.3539368  76.7659888  88.4740874
  87.2808231  75.7706472  88.3514446  86.9426743  75.6547537  87.4634981
  88.1497999  75.3697637  88.3315453  83.1395047  77.6241949  84.3411337
  82.5759912  77.5331885  83.5727625  83.0247442  76.8041853  84.8213830
  87.7628014  76.9241324  94.3100652  87.7516655  76.5294122  93.4381156
  87.9248654  76.1907396  94.9034423  80.6859479  79.1193140  87.1795558
  81.4780771  78.7783965  86.7641857  80.9256129  79.2288115  88.0997711
  88.7194606  81.2912916  79.6525802  88.0682585  81.8766997  79.2659816
  89.5138968  81.8219111  79.7120840  82.6450233  78.3802053  80.0512937
  83.4181109  77.8331040  79.9125812  82.9975632  79.2446303  80.2627398
  84.4835275  79.7078436  93.2579836  84.1925141  80.6124067  93.1426502
  85.1192260  79.7494963  93.9723905  85.4091482  77.0855284  89.8481196
  86.0055054  76.8611307  89.1338158  85.4666454  76.3440030  90.4506643
  84.9816511  74.5394720  77.6831386  85.2342031  74.0176241  76.9214849
  84.0441070  74.3760865  77.7858070  90.0259793  73.5430498  85.4906130
  90.8122883  73.1249921  85.1396547  90.2898498  74.4476590  85.6587778
  90.1969871  78.9803348  80.1894787  89.5615704  79.0537975  80.9015691
  89.8667277  79.5696947  79.5113866  95.4268221  73.4805731  86.3939108
  96.1593392  72.9104948  86.6276938  94.6707576  73.0927332  86.8345614
  84.7012799  76.4422825  79.8855761  84.5849057  75.7667729  80.5536846
  84.8115059  75.9555199  79.0687915  87.0444340  75.9032973  83.5902451
  86.6802547  75.3763594  84.3015372  87.9011456  75.5131442  83.4168936
  92.9493641  67.1927305  90.8533717  92.6176966  68.0622716  90.6294932
  92.3539254  66.8763589  91.5327747  86.6849827  70.9322872  78.5863799
  86.8524230  71.8003109  78.9534270  86.4946996  71.0950154  77.6625088
  89.4425160  79.3939851  90.2529630  89.1425883  80.2964890  90.1445437
  89.0976220  79.1272034  91.1050782  82.8937642  75.8453648  86.2866334
  81.9688138  75.7129862  86.4944026  83.1422055  76.6247867  86.7836276
  92.8422304  71.9122391  87.9327067  91.9339182  71.8437800  87.6385828
  92.7909900  72.3894336  88.7608892  86.6639048  73.3880530  79.5710466
  86.5438673  73.8337581  80.4095946  85.9691636  73.7365847  79.0124004
  80.2546453  75.4886922  87.1210123  80.3838834  75.7421401  88.0349535
  79.5743904  76.0814630  86.8014778  84.4245940  86.1584172  83.2200597
  84.3469970  87.1091997  83.2989078  83.8207584  85.8130044  83.8775524
  86.9163170  73.3312037  95.8761964  86.1396504  73.8905957  95.8664829
  87.5553733  73.8168820  96.3976834  94.7083951  70.1138830  89.7104941
  94.0658331  70.4071363  89.0644735  94.2038879  69.9991750  90.5158137
  92.3624114  73.8602003  80.3990800  93.2741970  74.0929390  80.2238498
  91.8533761  74.4439047  79.8365879  85.1709542  76.1397490  95.4379931
  85.9124227  76.6782534  95.1614755  84.4646528  76.7663779  95.5951483
  90.6464882  78.2826631  94.0352093  91.0548238  77.8409041  93.2906725
  89.9242143  77.7079258  94.2886286  86.9995952  73.2199238  91.4085650
  87.8457147  73.6438651  91.5520299  86.9394590  72.5632862  92.1024213
  90.9693697  78.8427821  87.7904382  90.3402559  79.0073536  87.0880449
  90.5819359  79.2569431  88.5615346  94.8482928  79.7782259  85.1448745
  94.1633967  80.1581161  84.5945779  94.9326778  80.3877586  85.8780693
  90.1495397  70.8803606  93.0666823  89.9056329  71.6345666  92.5301099
  90.4255328  71.2588954  93.9014070  92.1033860  77.4242218  91.7444089
  92.3150755  78.0673978  91.0678470  92.0563608  76.5904535  91.2766019
  89.7060089  70.0360039  88.6480661  88.8444568  70.3341292  88.9397399
  89.7322524  70.2530438  87.7161694  86.5221658  78.5802229  85.0554467
  86.9860004  78.8589932  84.2659089  86.2578457  77.6785674  84.8727557
  83.4145739  78.1273711  87.9934230  83.9847097  78.5560979  87.3551714
  84.0053851  77.8456296  88.6918416  85.4590544  74.7025382  81.8644032
  86.1614588  75.1546426  82.3317958  85.1271173  74.0609201  82.4923925
  83.9070906  73.2937138  96.2395241  83.2769567  73.9753419  96.4730638
  83.8006994  73.1820220  95.2948379  79.2015878  72.9608935  87.1661165
  78.4114932  73.2166463  86.6901276  79.6927126  73.7757272  87.2713206
  93.2179688  80.3014174  89.9166446  94.0397132  79.8994361  89.6349128
  93.2142091  80.1982408  90.8682562  81.1530624  73.3253514  84.1244642
  80.3561787  73.4372208  84.6428138  80.9256216  73.6640166  83.2585533
  86.9836291  79.8498217  92.0727157  87.0480724  80.3118624  92.9085329
  86.2747215  79.2195582  92.2009467  77.4853581  73.2139425  89.5976156
  77.7361620  74.0986435  89.8633732  78.0213130  73.0344027  88.8251248
 101.3085681  76.6452922  86.2651418 100.5549389  76.0760320  86.1095422
 101.4433222  76.6115587  87.2122052  86.6984309  81.5166324  81.9406137
  86.5629984  82.3617860  82.3690985  87.2394122  81.7185602  81.1772071
  83.1851649  67.5957904  98.6020492  82.7918594  67.0424103  99.2768136
  84.0017789  67.9068483  98.9927010  80.1513706  79.0341763  82.5134062
  80.6638227  79.8285013  82.6639627  80.8036419  78.3368053  82.4467664
  81.9608591  82.1507519  84.5956815  82.1375220  83.0725484  84.4077799
  82.7565425  81.8365938  85.0251195  86.1019610  69.0115783  96.1940749
  86.8429323  69.6122937  96.1145211  86.3337533  68.2693421  95.6358791
  81.2460948  74.1972151  94.4718978  81.1314463  73.2957408  94.7726077
  80.3905465  74.4435847  94.1203795  88.3252785  82.1389891  96.0706479
  87.8816640  81.3526270  95.7527384  88.9869999  82.3269042  95.4050370
  83.0839907  83.6685693  90.5967158  83.6347332  83.5402756  89.8244152
  82.2451383  83.9680582  90.2462050  90.4234024  82.4192691  94.0987880
  90.4052499  83.2401572  93.6068150  91.3453944  82.2946766  94.3238022
  86.8807078  79.9336820  94.9411389  87.4135414  79.1725109  94.7110697
  86.3521159  79.6410472  95.6835543  90.0476773  65.0396886  90.4705030
  89.7041042  65.9298528  90.3944141  90.4155735  64.8498544  89.6074615
  78.1162623  77.3630417  83.2893633  78.9537845  77.7727425  83.0727340
  78.2940891  76.4229859  83.2593826  90.0127055  75.0305497  78.9777466
  89.4973679  75.8010102  79.2165853  89.7404364  74.3570634  79.6010527
  87.5974166  69.8755198  84.0362704  86.7415763  69.4862049  83.8568343
  88.0101118  69.9547159  83.1762489  89.1273313  67.4101542  88.4354264
  88.6238109  67.3731677  87.6222069  89.4203920  68.3194284  88.4950920
  85.3716199  67.4940271  87.4420445  86.2369196  67.2983080  87.0826335
  85.4393708  67.2650623  88.3689802  94.9861330  77.7837852  80.9130639
  94.2090772  77.4449012  80.4685801  95.6652810  77.7890475  80.2385604
  89.8013359  72.9032590  80.8037247  89.4963494  73.2178739  81.6547390
  90.7543801  72.9814009  80.8464580  88.2459790  79.0622813  82.4530201
  87.7181152  78.3275572  82.1403438  87.7447293  79.8397489  82.2070169
  93.2252636  77.2571833  87.5697247  92.5676311  77.9471095  87.6577376
  94.0293036  77.6468265  87.9131233  82.9778518  69.7242479  84.8136812
  83.5522270  69.5017661  84.0810005  83.5649500  69.7931174  85.5665414
  92.0358095  75.6116206  85.6201189  92.5489977  76.2446198  86.1222899
  92.6859319  75.0117402  85.2544549  86.3912391  76.8803023  75.4565174
  85.4839452  76.6492277  75.6556323  86.8883423  76.0840642  75.6439155
  89.2980469  85.5900530  78.3761860  88.6242168  85.8932227  78.9846818
  89.6846291  86.3929611  78.0267317  88.5138926  73.0865662  87.8659529
  87.5961487  73.3080609  87.7081217  88.9299070  73.1611972  87.0071237
  89.2973974  74.4857077  82.9962210  90.0445793  74.9978475  82.6869332
  89.5665563  74.1641130  83.8566603  87.5700624  76.9815618  79.9789164
  86.6611843  76.6974651  80.0761634  87.5995708  77.4014697  79.1192471
  92.8019891  80.5922208  83.7480331  92.3482219  79.7513117  83.8045522
  92.1713858  81.2283606  84.0855112  91.7452811  71.5214194  84.9780999
  91.0075568  71.0091580  85.3091241  91.9979585  71.0814575  84.1664276
  91.2452831  82.4298704  84.6830150  91.5375805  82.9903761  83.9642515
  91.7551451  82.7227265  85.4383309  91.8464438  64.2990446  85.5722768
  92.1523315  63.4387809  85.2848683  92.5717043  64.8908066  85.3721762
  78.1388794  74.7021132  83.9604366  77.9413194  74.1090493  83.2355433
  77.5835458  74.3973342  84.6780305  86.1185518  74.5944239  86.0798959
  86.1734128  73.6418075  86.0041436  85.3076720  74.7503678  86.5640258
  87.2676712  78.5224362  77.3177242  86.8296142  77.8060221  76.8582880
  88.0087153  78.7500477  76.7562334  84.0577878  73.2121298  83.8389338
  83.2445744  73.5115469  84.2454530  84.5536872  72.8176987  84.5563820
  86.2086456  83.2079055  85.7723603  86.1662635  83.4339902  84.8432135
  87.1249155  82.9742430  85.9209404  89.6552090  73.6763123  92.6704232
  90.0101477  73.9034596  93.5298698  90.3024221  74.0081500  92.0481487
  95.3849827  76.7981559  83.3753561  95.2467725  76.9883155  82.4474750
  95.0286045  77.5600942  83.8321612  83.5491953  70.7839654  89.4550573
  84.1891332  70.6428413  88.7573536  82.7169483  70.4974167  89.0789175
  95.4119206  78.8658086  88.3864833  95.8455713  78.7733375  89.2347887
  96.1250787  78.8415586  87.7484849  84.3252257  80.0842084  85.5685565
  85.1192855  79.5892404  85.3668140  83.6143949  79.5559947  85.2053271
  89.1447101  82.4660180  89.9197933  89.1984123  83.0351116  90.6875649
  88.2761882  82.6362065  89.5551970  80.6335020  74.2285166  81.6445318
  79.7032608  74.1669622  81.8615280  80.7292492  73.7061119  80.8481959
  80.5520569  70.7539979  84.2323560  80.8127386  71.6685312  84.1232720
  81.3737741  70.2864421  84.3820173  82.0245494  72.1677736  91.4022384
  82.6968548  71.9595098  90.7535033  81.1975281  71.9699822  90.9627617
  96.2734756  78.9081786  90.9197718  96.4670646  79.8127597  91.1656993
  96.1735374  78.4489205  91.7536303  87.9271067  68.7939677  93.4188045
  87.2798982  69.4929627  93.3252522  88.6972082  69.2275821  93.7864293
  91.3349864  79.0588529  96.4938599  91.1835371  78.8299081  95.5768682
  91.3254544  80.0159131  96.5069944  88.1035201  76.6320442  91.4784865
  89.0327261  76.7831601  91.3053832  87.6826231  76.7204463  90.6233511
  86.9023533  80.6571106  89.2483403  86.7634618  80.2889891  90.1209341
  86.1138129  81.1718746  89.0767360  87.4971685  85.7580203  80.5908939
  87.6723440  85.2868246  81.4054562  86.8104473  86.3845969  80.8190200
  88.4528748  80.0352709  86.6372240  88.1178580  79.9953479  87.5329890
  87.9532693  79.3697425  86.1642651  82.4272992  75.4420339  92.1624822
  82.2892790  74.7100578  92.7636361  83.3377915  75.3529239  91.8809009
  91.3887939  77.3808743  76.9109300  90.7717110  76.6555572  76.8142353
  90.9204428  78.1418104  76.5676374  85.0555292  75.1540298  91.6508501
  85.7654911  74.5133491  91.6095120  85.0124601  75.4053193  92.5734682
  93.0442071  82.0907652  94.5715080  92.9854617  81.4066872  93.9045663
  93.4461589  82.8326642  94.1195706  83.7684226  72.1405516  93.4704141
  83.2321583  71.6896255  94.1225737  83.1800935  72.2751425  92.7274605
  82.0632770  88.9069566  87.3648799  82.3029368  89.5388090  88.0427818
  81.2201966  88.5557606  87.6514159  93.0459478  80.0547236  92.8029060
  92.1586257  79.7173157  92.9255459  93.6158029  79.3230267  93.0397825
  74.6988625  76.3871327  86.1272111  75.3859665  76.0733057  85.5393127
  74.5436754  77.2912692  85.8539363  79.5023348  71.2761524  90.5557135
  79.4181536  70.6687193  89.8207545  78.6806054  71.7670542  90.5566631
  86.5760632  84.7148688  89.7690303  86.5030803  85.5203659  90.2809608
  86.1338025  84.9140654  88.9438325  86.3650411  83.9520458  83.2793125
  85.5817933  84.4942138  83.3731349  87.0643157  84.4694438  83.6787366
  89.6747061  69.7615087  85.9227330  90.1715761  69.0085050  85.6028400
  88.9034043  69.7979404  85.3570540  97.5276819  75.4655453  87.5645622
  97.5166695  76.3480168  87.1939555  96.6594198  75.1127004  87.3700159
  89.0359315  84.6135522  91.9248462  89.7487287  85.2482987  91.8524363
  88.5449344  84.7099388  91.1088464  90.7576842  78.5186775  83.4965754
  89.8233121  78.6388237  83.3270458  90.9353511  77.6159241  83.2325763
  86.2582030  71.9032470  85.6499015  85.8879818  71.3503511  86.3379920
  86.7541123  71.2990604  85.0974015  94.1449394  74.3604094  84.0315788
  94.6109846  75.1932086  83.9576090  94.5956894  73.8949076  84.7361046
  84.0871229  82.3629965  92.7454033  84.7880688  82.9966448  92.8983427
  83.6166344  82.7044697  91.9849672  92.2125625  80.7047915  81.0301940
  92.4885469  80.5904510  81.9395814  91.3430123  80.3065400  80.9914113
  92.1166056  66.7284681  88.0706689  91.2029136  66.9588908  88.2388896
  92.5459158  66.8123125  88.9220721  91.8872515  74.9174573  90.5706583
  91.2343965  75.1650480  89.9159036  92.2652895  74.1038711  90.2369060
  88.8479689  84.9534266  84.6734753  89.0302083  84.1355922  85.1362506
  89.6712675  85.1701958  84.2359643  89.1821854  83.8802451  81.9349802
  89.7109621  83.3694906  81.3219964  89.4450074  83.5644981  82.7995335
  87.9360088  75.6594384  97.0572620  87.2600725  75.5588513  97.7274995
  88.7587722  75.5033598  97.5208617  79.6838947  81.8966321  89.6785135
  80.2692384  81.1510008  89.8113040  79.4863785  82.2070277  90.5621799
  82.5377602  84.9317568  84.6947578  81.8687977  85.4163696  84.2111618
  82.3990472  85.1786788  85.6090956  74.2756602  74.4671921  88.3989579
  74.3140701  73.9335511  89.1926697  73.7696894  73.9407126  87.7800556
  86.6782871  86.9661311  91.2930236  87.2301179  87.1292933  92.0579321
  87.0189064  87.5565749  90.6210261  81.6547364  69.3136461  91.8952121
  81.7188690  70.1751292  91.4829519  81.5914484  68.7010463  91.1624479
  81.1299636  71.3859594  95.5425155  81.7571675  71.0036671  96.1562679
  80.2727555  71.1673796  95.9080848  91.5293745  81.7922569  97.1478891
  92.0733649  82.4052527  96.6533845  90.9480590  82.3502147  97.6645904
  77.9065179  73.1936023  81.4743510  78.2018620  72.2846701  81.4210564
  77.0053215  73.1723762  81.1524512  89.8151258  84.9143287  88.2793918
  89.6902397  84.1133027  87.7704864  90.4730349  85.4089480  87.7907888
  81.4359426  71.2692019  87.4571059  80.7146012  71.8827987  87.3178532
  82.2252682  71.8049784  87.3787705  91.8786166  82.7152307  89.9073468
  90.9316502  82.5957658  89.8351795  92.2268939  81.8274805  89.9899730
  84.2385740  68.6046446  93.7311710  84.7620142  68.8508742  94.4938020
  84.0198073  69.4366481  93.3114848  88.8832600  82.5105023  86.1077821
  88.7357562  81.5821731  86.2885391  89.7086093  82.5325114  85.6234896
  82.7494844  71.1623090  81.9658313  83.0890916  71.6909012  81.2436921
  83.1966964  71.5003496  82.7416879  92.4866721  83.3333582  87.1942693
  93.4113269  83.1276443  87.0567145  92.3182025  83.0849983  88.1032035
  85.4438285  69.5460141  91.4161381  85.1035105  68.7467954  91.8182061
  84.7377291  69.8461852  90.8438214  86.0954757  66.6309453  89.8688704
  86.9180826  66.1569932  89.7467594  86.3392820  67.4099937  90.3687390
  88.8794114  70.3642861  81.1009938  89.0957728  71.2467499  80.7998766
  88.3988181  69.9729074  80.3715580  83.6193335  73.3228574  87.6780682
  83.4737916  73.6368877  88.5704964  83.1418539  73.9413474  87.1251581
  85.4789718  70.3131122  87.7261572  85.4651287  69.4172215  87.3893870
  86.1962146  70.3201786  88.3599858  87.3315849  70.7468462  89.7714699
  87.0733627  71.6685533  89.7699030  86.8000889  70.3498897  90.4615164
  92.2762038  83.8519249  82.5504785  92.4498915  83.2865672  81.7978637
  92.7690929  84.6520144  82.3684275  78.0938997  75.8633919  90.6168344
  77.5492466  76.6393726  90.7488618  78.9718347  76.2104723  90.4587465
  84.8826614  69.1945502  82.9949142  85.0042525  68.2662149  83.1940030
  84.5928657  69.2084188  82.0827458  87.7517805  66.8800413  86.1315862
  87.7739501  66.9439746  85.1767842  88.1685864  66.0404921  86.3256368
  98.1301429  76.6155672  84.1695085  98.5732575  75.8662998  83.7714208
  97.2527939  76.6065809  83.7868817  93.2637210  83.1686014  79.6501683
  93.9588115  83.7892707  79.8688998  93.6060360  82.3181365  79.9254061
  78.8805019  74.9903815  93.5098501  78.1386755  75.1386450  94.0963131
  78.5597764  75.2512080  92.6465250  95.1628633  80.6185719  81.1789014
  95.6879957  80.9572992  80.4538334  95.0750986  79.6832735  80.9952149
  86.8248682  84.5319793  93.3078891  87.1335808  84.2868940  94.1801590
  87.6224164  84.7366431  92.8197761  86.8469294  86.6857703  85.5384267
  86.4074284  86.1934081  86.2317124  87.5977411  86.1430670  85.2976342
  79.3261633  82.8769244  85.5408895  80.1519653  82.5773015  85.1607539
  78.9755685  82.1076866  85.9898684  84.2943166  82.2295712  87.6106569
  83.6723175  81.5666417  87.3108797  84.9648033  82.2556844  86.9280217
  77.5270238  80.7955570  86.4997829  76.6902146  80.3677744  86.3181830
  77.4993884  80.9888013  87.4368620  84.3667694  70.7077500  97.2039075
  84.4155849  71.5839623  96.8216844  84.9090208  70.1654893  96.6310718
  94.8522539  81.2518623  96.4840212  94.0618083  81.2342762  95.9444711
  94.6155894  81.7906917  97.2389248  94.9720414  78.1011089  93.7972940
  95.0218419  77.9361097  94.7388463  94.8634338  77.2338348  93.4070821
  83.8556673  80.7799635  81.0865029  84.0044793  81.4635099  80.4331702
  84.6623117  80.7604725  81.6014485  92.2624177  74.0842017  95.1132247
  93.1634040  73.9448482  94.8216245  92.3372151  74.2496472  96.0530425
  86.5966982  71.4608872  93.9585433  85.7270292  71.7542438  93.6868022
  86.8326463  72.0449317  94.6792697  96.4738611  80.5208031  94.0414962
  96.1823420  80.8838011  94.8778423  95.8610743  79.8075039  93.8628294
  97.6734294  78.0860911  86.5617532  98.5081185  78.5250715  86.7255093
  97.8093422  77.6099564  85.7425778  94.7225799  75.6440646  92.5095020
  95.1979921  75.8368292  91.7013871  93.7991365  75.6999831  92.2638404
  81.6109306  76.8064813  82.0926098  81.3655348  75.9027143  82.2906308
  81.7805221  76.8081963  81.1505576  89.3006016  67.6788489  91.4750854
  89.8187960  68.4149516  91.1497342  88.9461149  67.9852482  92.3097613
  89.5518610  64.0988772  86.9951750  89.8320364  63.4311961  87.6212177
  90.3369217  64.2917867  86.4826414  87.3552079  83.2747766  78.5576777
  86.7826046  83.8937953  78.1047249  87.9284872  83.8247127  79.0916699
  93.4227468  72.5206406  90.7423326  94.3744891  72.6204503  90.7635550
  93.2530919  71.7284674  91.2521410  91.4441848  69.6061989  90.9282726
  90.8491780  69.8867002  90.2329215  91.1591545  70.0955890  91.6999468
  90.5749338  83.5584916  79.6885359  91.5080012  83.4930477  79.8918235
  90.4872551  84.3941183  79.2299892  93.2037355  82.8750786  76.6489307
  93.1250987  82.5410650  77.5425064  94.0247022  83.3672554  76.6480779
  95.9015546  75.7412525  89.8565625  95.8691866  74.8028526  90.0425309
  96.5116170  75.8196562  89.1231450  87.7398877  74.6108578  75.8992829
  88.6857982  74.4814786  75.9681247  87.3613122  73.8723240  76.3762257
  96.0510035  72.5323569  89.9023908  95.5349083  71.7482025  89.7153837
  96.9349983  72.2042285  90.0670428  93.7120762  66.2764584  85.8619721
  93.5145583  65.9679672  86.7463053  94.3220467  67.0026223  85.9917651
 101.7192096  76.8028532  88.9971662 102.4495485  76.5413820  89.5579365
 101.1099042  76.0657254  89.0373730  99.8007393  74.9436395  89.5946113
  99.0740557  74.8092360  88.9862605  99.3854680  75.2513223  90.4002831
  87.6237570  78.6626324  97.3593486  88.5440579  78.8404923  97.5533533
  87.5887153  77.7182370  97.2073185  85.9241794  72.5358555  75.8347714
  85.0173250  72.2391667  75.9110428  86.2017775  72.2388373  74.9682001
  76.8419735  73.8564918  86.2846761  76.5222519  73.0030226  85.9921135
  76.2953163  74.0713496  87.0404728  80.6199642  76.5727359  90.0016267
  80.8385652  77.5044467  90.0204301  81.0325416  76.2135333  90.7871071
  85.4927508  72.1460565  99.3919016  85.3924234  73.0954922  99.3231107
  85.2749050  71.8178804  98.5195086  76.7107995  77.4767830  88.2539882
  76.0171466  77.0621782  87.7409837  77.4580986  77.5188366  87.6573301
  92.8473215  68.2674016  83.1194917  92.2671884  68.9258820  82.7372969
  92.5809148  67.4451361  82.7082334  91.2976782  67.6679074  85.3216237
  91.7976560  67.7795609  84.5130556  91.9412390  67.3640127  85.9617045
  85.3558778  75.5757704  98.2084078  84.8725859  76.3758064  98.4147967
  85.4419717  75.5865649  97.2551522  78.6244737  77.4086083  86.1305897
  78.6015425  77.5073771  85.1787780  78.9345374  78.2551234  86.4523063
  81.2832115  79.4662238  90.2452512  82.2375369  79.4346181  90.1782443
  81.0844639  79.0052862  91.0602738  81.8731497  78.0363354  92.8123309
  82.6924386  78.5307433  92.8358147  82.1468305  77.1195323  92.7840877
  91.6298093  70.4274107  82.1751265  90.7423948  70.7123757  81.9571460
  92.0452082  70.2667870  81.3278542  94.9812630  70.4520628  85.8905604
  95.7573020  70.9417080  86.1630221  94.2560764  70.8778682  86.3477474
  97.4185188  71.1648247  86.9479545  98.0129679  70.9243983  86.2372853
  97.4911772  70.4455377  87.5753081  79.6382344  85.0081858  87.2622710
  79.5036812  84.2482259  86.6960708  79.2214406  85.7322758  86.7951498
  90.7741307  80.1918781  76.2699285  91.4777157  80.3968784  76.8856940
  90.0503956  80.7595543  76.5348368  91.6039117  75.9428643  82.3901555
  91.5474319  76.3997194  81.5509187  92.1567460  75.1819327  82.2124398
  95.4143923  71.7318375  83.2151675  95.1580857  71.3315010  84.0459882
  94.7896791  72.4462168  83.0901814  99.7256261  74.4714448  85.7222966
  99.1655819  74.5407637  86.4954528  99.1199764  74.2955432  85.0022462
  82.7951470  85.9051175  87.4741152  82.6783854  86.8496607  87.3719843
  81.9743916  85.6024736  87.8626951  92.6828004  80.6301311  78.3197745
  93.5173608  80.1982509  78.1375220  92.5212347  80.4583324  79.2474639
  92.3373896  77.1333424  79.6854084  92.2822700  76.9677695  78.7442528
  91.7119952  77.8409457  79.8416274  77.1266411  72.3701488  93.5115506
  77.7725275  71.8600442  94.0002732  76.9183563  73.1070170  94.0858932
  89.6519804  79.4382336  99.0107647  90.5210963  79.6122988  98.6494282
  89.1726555  80.2576753  98.8883376  83.8205984  86.5579437  90.6897081
  84.7233231  86.5903047  91.0063576  83.5943354  85.6279888  90.7043416
  85.5759586  85.3110423  87.3507159  84.6255217  85.3112285  87.2371532
  85.8792072  84.5643158  86.8343194  89.4622141  63.2284310  83.5185339
  88.6954537  62.6742796  83.6642022  89.8732846  63.3006178  84.3799491
  81.4663902  69.5169105  97.6090521  82.3295364  69.1605910  97.8193845
  80.8929313  69.1783000  98.2965925 101.3112279  91.1470962  88.4152922
 101.9490689  91.0277709  87.7116262 101.1933122  92.0951806  88.4740874
  98.1201986  91.0998390  88.3514446  97.7820497  90.9839455  87.4634981
  98.9891754  90.6989555  88.3315453  93.9788801  92.9533866  84.3411337
  93.4153666  92.8623803  83.5727625  93.8641196  92.1333771  84.8213830
  98.6021769  92.2533242  94.3100652  98.5910409  91.8586040  93.4381156
  98.7642408  91.5199314  94.9034423  91.5253233  94.4485058  87.1795558
  92.3174525  94.1075882  86.7641857  91.7649883  94.5580033  88.0997711
  99.5588360  96.6204834  79.6525802  98.9076340  97.2058914  79.2659816
 100.3532723  97.1511029  79.7120840  93.4843987  93.7093971  80.0512937
  94.2574863  93.1622958  79.9125812  93.8369386  94.5738220  80.2627398
  95.3229030  95.0370353  93.2579836  95.0318896  95.9415984  93.1426502
  95.9586014  95.0786881  93.9723905  96.2485237  92.4147202  89.8481196
  96.8448809  92.1903224  89.1338158  96.3060208  91.6731947  90.4506643
  95.8210265  89.8686637  77.6831386  96.0735786  89.3468158  76.9214849
  94.8834824  89.7052783  77.7858070 100.8653548  88.8722416  85.4906130
 101.6516637  88.4541839  85.1396547 101.1292252  89.7768508  85.6587778
 101.0363625  94.3095266  80.1894787 100.4009458  94.3829892  80.9015691
 100.7061032  94.8988865  79.5113866 106.2661975  88.8097649  86.3939108
 106.9987147  88.2396866  86.6276938 105.5101331  88.4219249  86.8345614
  95.5406554  91.7714743  79.8855761  95.4242812  91.0959647  80.5536846
  95.6508814  91.2847117  79.0687915  97.8838095  91.2324890  83.5902451
  97.5196302  90.7055511  84.3015372  98.7405211  90.8423359  83.4168936
 103.7887395  82.5219223  90.8533717 103.4570720  83.3914634  90.6294932
 103.1933009  82.2055507  91.5327747  97.5243582  86.2614790  78.5863799
  97.6917984  87.1295026  78.9534270  97.3340751  86.4242072  77.6625088
 100.2818915  94.7231769  90.2529630  99.9819638  95.6256808  90.1445437
  99.9369974  94.4563952  91.1050782  93.7331396  91.1745566  86.2866334
  92.8081893  91.0421780  86.4944026  93.9815810  91.9539785  86.7836276
 103.6816059  87.2414309  87.9327067 102.7732936  87.1729717  87.6385828
 103.6303654  87.7186254  88.7608892  97.5032803  88.7172447  79.5710466
  97.3832428  89.1629498  80.4095946  96.8085391  89.0657765  79.0124004
  91.0940207  90.8178839  87.1210123  91.2232589  91.0713318  88.0349535
  90.4137659  91.4106547  86.8014778  95.2639695 101.4876089  83.2200597
  95.1863724 102.4383914  83.2989078  94.6601338 101.1421962  83.8775524
  97.7556924  88.6603955  95.8761964  96.9790259  89.2197875  95.8664829
  98.3947488  89.1460738  96.3976834 105.5477705  85.4430747  89.7104941
 104.9052085  85.7363281  89.0644735 105.0432634  85.3283668  90.5158137
 103.2017869  89.1893921  80.3990800 104.1135725  89.4221307  80.2238498
 102.6927516  89.7730965  79.8365879  96.0103297  91.4689408  95.4379931
  96.7517981  92.0074452  95.1614755  95.3040282  92.0955697  95.5951483
 101.4858636  93.6118548  94.0352093 101.8941992  93.1700959  93.2906725
 100.7635898  93.0371176  94.2886286  97.8389706  88.5491155  91.4085650
  98.6850902  88.9730569  91.5520299  97.7788344  87.8924780  92.1024213
 101.8087451  94.1719739  87.7904382 101.1796313  94.3365453  87.0880449
 101.4213113  94.5861349  88.5615346 105.6876683  95.1074177  85.1448745
 105.0027721  95.4873078  84.5945779 105.7720532  95.7169504  85.8780693
 100.9889152  86.2095524  93.0666823 100.7450084  86.9637584  92.5301099
 101.2649082  86.5880871  93.9014070 102.9427615  92.7534136  91.7444089
 103.1544510  93.3965896  91.0678470 102.8957363  91.9196453  91.2766019
 100.5453843  85.3651957  88.6480661  99.6838323  85.6633210  88.9397399
 100.5716278  85.5822356  87.7161694  97.3615413  93.9094147  85.0554467
  97.8253758  94.1881850  84.2659089  97.0972211  93.0077592  84.8727557
  94.2539494  93.4565629  87.9934230  94.8240851  93.8852897  87.3551714
  94.8447606  93.1748213  88.6918416  96.2984299  90.0317300  81.8644032
  97.0008342  90.4838343  82.3317958  95.9664927  89.3901118  82.4923925
  94.7464660  88.6229056  96.2395241  94.1163321  89.3045337  96.4730638
  94.6400748  88.5112138  95.2948379  90.0409633  88.2900852  87.1661165
  89.2508687  88.5458381  86.6901276  90.5320880  89.1049190  87.2713206
 104.0573442  95.6306091  89.9166446 104.8790886  95.2286279  89.6349128
 104.0535845  95.5274326  90.8682562  91.9924378  88.6545431  84.1244642
  91.1955542  88.7664126  84.6428138  91.7649971  88.9932084  83.2585533
  97.8230046  95.1790135  92.0727157  97.8874478  95.6410542  92.9085329
  97.1140970  94.5487500  92.2009467  88.3247336  88.5431343  89.5976156
  88.5755374  89.4278353  89.8633732  88.8606884  88.3635944  88.8251248
 112.1479436  91.9744840  86.2651418 111.3943144  91.4052238  86.1095422
 112.2826977  91.9407504  87.2122052  97.5378064  96.8458242  81.9406137
  97.4023738  97.6909778  82.3690985  98.0787876  97.0477520  81.1772071
  94.0245403  82.9249822  98.6020492  93.6312349  82.3716021  99.2768136
  94.8411544  83.2360400  98.9927010  90.9907461  94.3633680  82.5134062
  91.5031982  95.1576930  82.6639627  91.6430174  93.6659971  82.4467664
  92.8002346  97.4799436  84.5956815  92.9768974  98.4017401  84.4077799
  93.5959179  97.1657856  85.0251195  96.9413364  84.3407701  96.1940749
  97.6823078  84.9414854  96.1145211  97.1731287  83.5985339  95.6358791
  92.0854702  89.5264068  94.4718978  91.9708217  88.6249326  94.7726077
  91.2299220  89.7727765  94.1203795  99.1646540  97.4681809  96.0706479
  98.7210394  96.6818187  95.7527384  99.8263754  97.6560959  95.4050370
  93.9233661  98.9977610  90.5967158  94.4741086  98.8694674  89.8244152
  93.0845137  99.2972499  90.2462050 101.2627778  97.7484609  94.0987880
 101.2446253  98.5693490  93.6068150 102.1847698  97.6238684  94.3238022
  97.7200832  95.2628738  94.9411389  98.2529169  94.5017026  94.7110697
  97.1914913  94.9702390  95.6835543 100.8870527  80.3688804  90.4705030
 100.5434797  81.2590446  90.3944141 101.2549490  80.1790462  89.6074615
  88.9556378  92.6922335  83.2893633  89.7931600  93.1019343  83.0727340
  89.1334645  91.7521777  83.2593826 100.8520810  90.3597415  78.9777466
 100.3367433  91.1302020  79.2165853 100.5798118  89.6862551  79.6010527
  98.4367921  85.2047116  84.0362704  97.5809517  84.8153966  83.8568343
  98.8494873  85.2839077  83.1762489  99.9667068  82.7393459  88.4354264
  99.4631863  82.7023594  87.6222069 100.2597674  83.6486202  88.4950920
  96.2109953  82.8232189  87.4420445  97.0762950  82.6274998  87.0826335
  96.2787462  82.5942541  88.3689802 105.8255084  93.1129770  80.9130639
 105.0484527  92.7740929  80.4685801 106.5046565  93.1182393  80.2385604
 100.6407113  88.2324507  80.8037247 100.3357249  88.5470656  81.6547390
 101.5937555  88.3105927  80.8464580  99.0853545  94.3914731  82.4530201
  98.5574906  93.6567490  82.1403438  98.5841048  95.1689407  82.2070169
 104.0646391  92.5863751  87.5697247 103.4070065  93.2763012  87.6577376
 104.8686790  92.9760183  87.9131233  93.8172273  85.0534397  84.8136812
  94.3916024  84.8309578  84.0810005  94.4043255  85.1223091  85.5665414
 102.8751850  90.9408124  85.6201189 103.3883731  91.5738116  86.1222899
 103.5253074  90.3409319  85.2544549  94.1441860  87.0838858  78.8332698
  93.3079172  87.4213544  79.1541972  94.0046629  86.9487838  77.8959834
  96.1194940  81.9275646  83.5411882  95.4659353  81.6124663  82.9168496
  96.0775414  81.3051386  84.2671705  97.2306145  92.2094941  75.4565174
  96.3233207  91.9784194  75.6556323  97.7277177  91.4132560  75.6439155
 100.1374224 100.9192448  78.3761860  99.4635923 101.2224145  78.9846818
 100.5240046 101.7221528  78.0267317  99.3532681  88.4157579  87.8659529
  98.4355242  88.6372526  87.7081217  99.7692824  88.4903890  87.0071237
 100.1367728  89.8148995  82.9962210 100.8839547  90.3270392  82.6869332
 100.4059318  89.4933048  83.8566603  98.4094379  92.3107536  79.9789164
  97.5005598  92.0266569  80.0761634  98.4389462  92.7306614  79.1192471
 103.6413646  95.9214125  83.7480331 103.1875973  95.0805035  83.8045522
 103.0107613  96.5575524  84.0855112 102.5846565  86.8506111  84.9780999
 101.8469322  86.3383497  85.3091241 102.8373339  86.4106493  84.1664276
 102.0846585  97.7590622  84.6830150 102.3769560  98.3195679  83.9642515
 102.5945206  98.0519183  85.4383309 102.6858193  79.6282363  85.5722768
 102.9917070  78.7679727  85.2848683 103.4110798  80.2199983  85.3721762
  88.9782549  90.0313050  83.9604366  88.7806949  89.4382411  83.2355433
  88.4229213  89.7265260  84.6780305  96.9579273  89.9236156  86.0798959
  97.0127882  88.9709993  86.0041436  96.1470475  90.0795595  86.5640258
  98.1070466  93.8516279  77.3177242  97.6689896  93.1352138  76.8582880
  98.8480907  94.0792394  76.7562334  94.8971632  88.5413216  83.8389338
  94.0839498  88.8407387  84.2454530  95.3930627  88.1468905  84.5563820
  97.0480210  98.5370973  85.7723603  97.0056389  98.7631819  84.8432135
  97.9642909  98.3034348  85.9209404 100.4945844  89.0055041  92.6704232
 100.8495232  89.2326514  93.5298698 101.1417975  89.3373417  92.0481487
 106.2243581  92.1273476  83.3753561 106.0861480  92.3175072  82.4474750
 105.8679800  92.8892859  83.8321612  94.3885707  86.1131572  89.4550573
  95.0285087  85.9720331  88.7573536  93.5563238  85.8266085  89.0789175
 106.2512961  94.1950003  88.3864833 106.6849467  94.1025293  89.2347887
 106.9644541  94.1707504  87.7484849  95.1646011  95.4134002  85.5685565
  95.9586610  94.9184322  85.3668140  94.4537704  94.8851865  85.2053271
  99.9840856  97.7952098  89.9197933 100.0377878  98.3643034  90.6875649
  99.1155637  97.9653983  89.5551970  91.4728775  89.5577084  81.6445318
  90.5426363  89.4961539  81.8615280  91.5686247  89.0353036  80.8481959
  91.3914324  86.0831897  84.2323560  91.6521141  86.9977230  84.1232720
  92.2131496  85.6156339  84.3820173  92.8639249  87.4969654  91.4022384
  93.5362302  87.2887016  90.7535033  92.0369036  87.2991740  90.9627617
 107.1128510  94.2373704  90.9197718 107.3064400  95.1419515  91.1656993
 107.0129128  93.7781123  91.7536303  98.7664821  84.1231595  93.4188045
  98.1192736  84.8221544  93.3252522  99.5365836  84.5567739  93.7864293
 102.1743619  94.3880447  96.4938599 102.0229125  94.1590999  95.5768682
 102.1648298  95.3451048  96.5069944  98.9428955  91.9612360  91.4784865
  99.8721015  92.1123519  91.3053832  98.5219985  92.0496380  90.6233511
  97.7417287  95.9863024  89.2483403  97.6028373  95.6181808  90.1209341
  96.9531883  96.5010663  89.0767360  98.3365439 101.0872120  80.5908939
  98.5117195 100.6160164  81.4054562  97.6498227 101.7137887  80.8190200
  99.2922502  95.3644627  86.6372240  98.9572335  95.3245397  87.5329890
  98.7926448  94.6989343  86.1642651  93.2666746  90.7712257  92.1624822
  93.1286544  90.0392496  92.7636361  94.1771670  90.6821157  91.8809009
 102.2281694  92.7100661  76.9109300 101.6110865  91.9847489  76.8142353
 101.7598182  93.4710021  76.5676374  95.8949047  90.4832216  91.6508501
  96.6048665  89.8425408  91.6095120  95.8518355  90.7345111  92.5734682
 103.8835826  97.4199569  94.5715080 103.8248372  96.7358789  93.9045663
 104.2855344  98.1618559  94.1195706  94.6077981  87.4697434  93.4704141
  94.0715338  87.0188172  94.1225737  94.0194689  87.6043343  92.7274605
  92.9026524 104.2361483  87.3648799  93.1423123 104.8680007  88.0427818
  92.0595721 103.8849523  87.6514159  94.0180240  86.9286085  76.0330604
  93.1409706  86.8074886  75.6692851  94.4937993  86.1372164  75.7809493
 103.8853233  95.3839153  92.8029060 102.9980012  95.0465075  92.9255459
 104.4551784  94.6522185  93.0397825  85.5382380  91.7163245  86.1272111
  86.2253420  91.4024975  85.5393127  85.3830509  92.6204610  85.8539363
  90.3417102  86.6053442  90.5557135  90.2575291  85.9979111  89.8207545
  89.5199809  87.0962460  90.5566631  97.4154386 100.0440606  89.7690303
  97.3424558 100.8495577  90.2809608  96.9731779 100.2432571  88.9438325
  97.2044166  99.2812376  83.2793125  96.4211688  99.8234056  83.3731349
  97.9036911  99.7986355  83.6787366 100.5140816  85.0907005  85.9227330
 101.0109516  84.3376967  85.6028400  99.7427797  85.1271322  85.3570540
 108.3670573  90.7947371  87.5645622 108.3560450  91.6772086  87.1939555
 107.4987953  90.4418922  87.3700159  99.8753070  99.9427440  91.9248462
 100.5881042 100.5774905  91.8524363  99.3843098 100.0391306  91.1088464
 101.5970597  93.8478692  83.4965754 100.6626875  93.9680155  83.3270458
 101.7747265  92.9451159  83.2325763  97.0975785  87.2324388  85.6499015
  96.7273572  86.6795429  86.3379920  97.5934877  86.6282522  85.0974015
 104.9843148  89.6896012  84.0315788 105.4503600  90.5224003  83.9576090
 105.4350649  89.2240993  84.7361046  94.9264983  97.6921883  92.7454033
  95.6274443  98.3258366  92.8983427  94.4560098  98.0336615  91.9849672
 103.0519379  96.0339833  81.0301940 103.3279223  95.9196428  81.9395814
 102.1823878  95.6357318  80.9914113 102.9559811  82.0576599  88.0706689
 102.0422891  82.2880825  88.2388896 103.3852912  82.1415043  88.9220721
 102.7266269  90.2466491  90.5706583 102.0737720  90.4942398  89.9159036
 103.1046649  89.4330629  90.2369060  99.6873443 100.2826184  84.6734753
  99.8695838  99.4647840  85.1362506 100.5106429 100.4993876  84.2359643
 100.0215609  99.2094369  81.9349802 100.5503375  98.6986823  81.3219964
 100.2843828  98.8936899  82.7995335  98.7753842  90.9886302  97.0572620
  98.0994479  90.8880431  97.7274995  99.5981476  90.8325515  97.5208617
  90.5232701  97.2258238  89.6785135  91.1086138  96.4801926  89.8113040
  90.3257540  97.5362195  90.5621799  93.3771357 100.2609486  84.6947578
  92.7081732 100.7455613  84.2111618  93.2384226 100.5078706  85.6090956
  85.1150356  89.7963838  88.3989579  85.1534456  89.2627429  89.1926697
  84.6090649  89.2699044  87.7800556  97.5176625 102.2953229  91.2930236
  98.0694933 102.4584851  92.0579321  97.8582819 102.8857667  90.6210261
  92.4941118  84.6428379  91.8952121  92.5582445  85.5043210  91.4829519
  92.4308239  84.0302381  91.1624479  91.9693391  86.7151511  95.5425155
  92.5965430  86.3328589  96.1562679  91.1121310  86.4965713  95.9080848
  88.7458934  88.5227941  81.4743510  89.0412375  87.6138619  81.4210564
  87.8446969  88.5015680  81.1524512 100.6545012 100.2435205  88.2793918
 100.5296152  99.4424944  87.7704864 101.3124104 100.7381398  87.7907888
  92.2753181  86.5983937  87.4571059  91.5539766  87.2119905  87.3178532
  93.0646436  87.1341702  87.3787705 102.7179921  98.0444225  89.9073468
 101.7710256  97.9249576  89.8351795 103.0662694  97.1566723  89.9899730
  95.0779494  83.9338364  93.7311710  95.6013896  84.1800660  94.4938020
  94.8591827  84.7658398  93.3114848  90.4746775  86.2042038  81.5982835
  90.1459481  85.3239417  81.4157941  90.8286146  86.1489707  82.4859224
  99.7226354  97.8396941  86.1077821  99.5751317  96.9113648  86.2885391
 100.5479848  97.8617032  85.6234896  93.5888598  86.4915008  81.9658313
  93.9284671  87.0200929  81.2436921  94.0360719  86.8295414  82.7416879
 103.3260476  98.6625500  87.1942693 104.2507023  98.4568361  87.0567145
 103.1575779  98.4141901  88.1032035  96.2832039  84.8752059  91.4161381
  95.9428860  84.0759872  91.8182061  95.5771046  85.1753770  90.8438214
  96.9348511  81.9601371  89.8688704  97.7574580  81.4861849  89.7467594
  97.1786575  82.7391855  90.3687390  95.5756746  84.9889630  80.1651606
  96.2965108  85.3670882  79.6615322  94.9522050  85.7078506  80.2686584
  99.7187868  85.6934779  81.1009938  99.9351483  86.5759416  80.7998766
  99.2381936  85.3020992  80.3715580  94.4587090  88.6520492  87.6780682
  94.3131671  88.9660795  88.5704964  93.9812293  89.2705392  87.1251581
  96.3183473  85.6423040  87.7261572  96.3045041  84.7464133  87.3893870
  97.0355901  85.6493704  88.3599858  98.1709603  86.0760380  89.7714699
  97.9127381  86.9977451  89.7699030  97.6394644  85.6790815  90.4615164
 103.1155792  99.1811167  82.5504785 103.2892670  98.6157590  81.7978637
 103.6084683  99.9812062  82.3684275  88.9332752  91.1925836  90.6168344
  88.3886220  91.9685644  90.7488618  89.8112102  91.5396641  90.4587465
  95.7220369  84.5237420  82.9949142  95.8436280  83.5954066  83.1940030
  95.4322411  84.5376106  82.0827458  98.5911559  82.2092331  86.1315862
  98.6133256  82.2731664  85.1767842  99.0079618  81.3696839  86.3256368
 108.9695183  91.9447590  84.1695085 109.4126329  91.1954915  83.7714208
 108.0921694  91.9357726  83.7868817 104.1030965  98.4977932  79.6501683
 104.7981869  99.1184624  79.8688998 104.4454115  97.6473283  79.9254061
  89.7198774  90.3195732  93.5098501  88.9780510  90.4678368  94.0963131
  89.3991518  90.5803998  92.6465250 106.0022388  95.9477637  81.1789014
 106.5273712  96.2864910  80.4538334 105.9144740  95.0124652  80.9952149
  97.6642436  99.8611711  93.3078891  97.9729563  99.6160857  94.1801590
  98.4617919 100.0658349  92.8197761  97.6863049 102.0149620  85.5384267
  97.2468039 101.5225999  86.2317124  98.4371166 101.4722588  85.2976342
  90.1655388  98.2061161  85.5408895  90.9913407  97.9064933  85.1607539
  89.8149440  97.4368784  85.9898684  95.1336921  97.5587629  87.6106569
  94.5116930  96.8958334  87.3108797  95.8041788  97.5848761  86.9280217
  88.3663993  96.1247488  86.4997829  87.5295901  95.6969662  86.3181830
  88.3387638  96.3179931  87.4368620  95.2061448  86.0369417  97.2039075
  95.2549604  86.9131540  96.8216844  95.7483962  85.4946810  96.6310718
 105.8114169  93.4303007  93.7972940 105.8612174  93.2653015  94.7388463
 105.7028092  92.5630266  93.4070821  94.6950428  96.1091553  81.0865029
  94.8438548  96.7927017  80.4331702  95.5016871  96.0896643  81.6014485
 103.1017931  89.4133935  95.1132247 104.0027794  89.2740400  94.8216245
 103.1765906  89.5788390  96.0530425  97.4360737  86.7900790  93.9585433
  96.5664046  87.0834356  93.6868022  97.6720217  87.3741235  94.6792697
 108.5128048  93.4152828  86.5617532 109.3474939  93.8542632  86.7255093
 108.6487177  92.9391482  85.7425778 105.5619554  90.9732563  92.5095020
 106.0373676  91.1660210  91.7013871 104.6385119  91.0291749  92.2638404
  92.4503061  92.1356730  82.0926098  92.2049103  91.2319060  82.2906308
  92.6198975  92.1373881  81.1505576 100.1399770  83.0080407  91.4750854
 100.6581714  83.7441434  91.1497342  99.7854903  83.3144400  92.3097613
  91.7198708  87.8685088  79.5912260  91.0267953  87.9429443  78.9352296
  91.4750460  87.1045432  80.1133777 100.3912365  79.4280689  86.9951750
 100.6714118  78.7603878  87.6212177 101.1762972  79.6209785  86.4826414
  98.1945833  98.6039683  78.5576777  97.6219800  99.2229870  78.1047249
  98.7678627  99.1539045  79.0916699 104.2621223  87.8498323  90.7423326
 105.2138646  87.9496421  90.7635550 104.0924673  87.0576592  91.2521410
 102.2835602  84.9353907  90.9282726 101.6885535  85.2158919  90.2329215
 101.9985299  85.4247807  91.6999468 101.4143093  98.8876833  79.6885359
 102.3473766  98.8222395  79.8918235 101.3266306  99.7233100  79.2299892
 104.0431110  98.2042704  76.6489307 103.9644741  97.8702567  77.5425064
 104.8640776  98.6964472  76.6480779 106.7409301  91.0704443  89.8565625
 106.7085621  90.1320444  90.0425309 107.3509924  91.1488480  89.1231450
  98.5792632  89.9400496  75.8992829  99.5251736  89.8106704  75.9681247
  98.2006877  89.2015158  76.3762257 106.8903789  87.8615486  89.9023908
 106.3742838  87.0773943  89.7153837 107.7743738  87.5334203  90.0670428
 104.5514516  81.6056502  85.8619721 104.3539337  81.2971590  86.7463053
 105.1614222  82.3318141  85.9917651 112.5585851  92.1320450  88.9971662
 113.2889239  91.8705738  89.5579365 111.9492796  91.3949172  89.0373730
 110.6401148  90.2728312  89.5946113 109.9134311  90.1384277  88.9862605
 110.2248435  90.5805141  90.4002831  98.4631324  93.9918242  97.3593486
  99.3834334  94.1696841  97.5533533  98.4280907  93.0474287  97.2073185
  96.7635549  87.8650472  75.8347714  95.8567004  87.5683585  75.9110428
  97.0411530  87.5680290  74.9682001  87.6813489  89.1856836  86.2846761
  87.3616274  88.3322144  85.9921135  87.1346917  89.4005414  87.0404728
  91.4593397  91.9019277  90.0016267  91.6779406  92.8336385  90.0204301
  91.8719171  91.5427251  90.7871071  98.3797615  82.4087362  81.9891956
  97.5698343  82.0634447  82.3647202  99.0682031  82.0994906  82.5779567
 100.3088163  81.4865409  83.6116252 100.8619201  81.9060862  84.2706275
 100.5458249  80.5601157  83.6539208  96.3321262  87.4752483  99.3919016
  96.2317989  88.4246839  99.3231107  96.1142804  87.1470721  98.5195086
  95.5334333  84.7237408  75.9759694  96.3953497  85.0492306  76.2355511
  95.7184678  83.9368903  75.4632759  87.5501749  92.8059747  88.2539882
  86.8565221  92.3913700  87.7409837  88.2974740  92.8480284  87.6573301
 103.6866970  83.5965934  83.1194917 103.1065639  84.2550738  82.7372969
 103.4202903  82.7743279  82.7082334 102.1370536  82.9970992  85.3216237
 102.6370315  83.1087526  84.5130556 102.7806144  82.6932045  85.9617045
  96.1952532  90.9049621  98.2084078  95.7119614  91.7049981  98.4147967
  96.2813471  90.9157566  97.2551522  89.4638492  92.7378001  86.1305897
  89.4409180  92.8365688  85.1787780  89.7739128  93.5843152  86.4523063
  92.1225870  94.7954156  90.2452512  93.0769123  94.7638098  90.1782443
  91.9238393  94.3344780  91.0602738  92.7125252  93.3655272  92.8123309
  93.5318141  93.8599351  92.8358147  92.9862059  92.4487240  92.7840877
 102.4691848  85.7566024  82.1751265 101.5817703  86.0415675  81.9571460
 102.8845837  85.5959788  81.3278542 105.8206384  85.7812545  85.8905604
 106.5966774  86.2708998  86.1630221 105.0954518  86.2070600  86.3477474
 108.2578943  86.4940165  86.9479545 108.8523433  86.2535901  86.2372853
 108.3305526  85.7747295  87.5753081  90.4776098 100.3373776  87.2622710
  90.3430566  99.5774176  86.6960708  90.0608161 101.0614675  86.7951498
 101.6135061  95.5210699  76.2699285 102.3170911  95.7260702  76.8856940
 100.8897710  96.0887461  76.5348368 102.4432872  91.2720560  82.3901555
 102.3868073  91.7289112  81.5509187 102.9961214  90.5111245  82.2124398
 106.2537678  87.0610292  83.2151675 105.9974612  86.6606928  84.0459882
 105.6290546  87.7754086  83.0901814 110.5650015  89.8006365  85.7222966
 110.0049573  89.8699555  86.4954528 109.9593519  89.6247350  85.0022462
  93.6345224 101.2343093  87.4741152  93.5177608 102.1788525  87.3719843
  92.8137671 100.9316654  87.8626951 103.5221759  95.9593228  78.3197745
 104.3567363  95.5274427  78.1375220 103.3606102  95.7875242  79.2474639
 103.1767651  92.4625342  79.6854084 103.1216455  92.2969613  78.7442528
 102.5513706  93.1701374  79.8416274  87.9660166  87.6993406  93.5115506
  88.6119030  87.1892360  94.0002732  87.7577317  88.4362088  94.0858932
  96.4863776  81.9633451  79.2639403  96.4742446  82.9075291  79.4207673
  97.3787198  81.7803596  78.9698864  94.6599738 101.8871354  90.6897081
  95.5626985 101.9194965  91.0063576  94.4337108 100.9571805  90.7043416
  96.4153340 100.6402341  87.3507159  95.4648971 100.6404203  87.2371532
  96.7185827  99.8935076  86.8343194 100.3015896  78.5576227  83.5185339
  99.5348292  78.0034714  83.6642022 100.7126601  78.6298096  84.3799491
  92.3057657  84.8461023  97.6090521  93.1689118  84.4897828  97.8193845
  91.7323068  84.5074918  98.2965925 104.8182556 108.2825784  84.3411337
 104.2547421 108.1915721  83.5727625 104.7034951 107.4625688  84.8213830
 102.3646988 109.7776976  87.1795558 103.1568280 109.4367800  86.7641857
 102.6043638 109.8871951  88.0997711 104.3237742 109.0385889  80.0512937
 105.0968618 108.4914876  79.9125812 104.6763141 109.9030138  80.2627398
 106.6604020 105.1978555  77.6831386 106.9129540 104.6760076  76.9214849
 105.7228579 105.0344700  77.7858070 111.7047302 104.2014333  85.4906130
 112.4910392 103.7833756  85.1396547 111.9686007 105.1060425  85.6587778
 106.3800308 107.1006661  79.8855761 106.2636566 106.4251564  80.5536846
 106.4902568 106.6139035  79.0687915 108.7231849 106.5616808  83.5902451
 108.3590056 106.0347429  84.3015372 109.5798965 106.1715277  83.4168936
 108.3637336 101.5906708  78.5863799 108.5311739 102.4586944  78.9534270
 108.1734505 101.7533989  77.6625088 104.5725151 106.5037483  86.2866334
 103.6475647 106.3713697  86.4944026 104.8209564 107.2831703  86.7836276
 108.3426557 104.0464365  79.5710466 108.2226182 104.4921416  80.4095946
 107.6479145 104.3949683  79.0124004 101.9333962 106.1470757  87.1210123
 102.0626343 106.4005236  88.0349535 101.2531413 106.7398465  86.8014778
 114.0411623 104.5185838  80.3990800 114.9529479 104.7513225  80.2238498
 113.5321270 105.1022883  79.8365879 111.3847598 100.6943874  88.6480661
 110.5232077 100.9925128  88.9397399 111.4110033 100.9114273  87.7161694
 108.2009167 109.2386065  85.0554467 108.6647513 109.5173768  84.2659089
 107.9365966 108.3369509  84.8727557 107.1378053 105.3609217  81.8644032
 107.8402097 105.8130261  82.3317958 106.8058682 104.7193036  82.4923925
 100.8803387 103.6192770  87.1661165 100.0902441 103.8750298  86.6901276
 101.3714635 104.4341108  87.2713206 102.8318133 103.9837349  84.1244642
 102.0349296 104.0956043  84.6428138 102.6043725 104.3224001  83.2585533
  99.1641090 103.8723260  89.5976156  99.4149129 104.7570270  89.8633732
  99.7000639 103.6927862  88.8251248 101.8301215 109.6925598  82.5134062
 102.3425736 110.4868848  82.6639627 102.4823928 108.9951888  82.4467664
 103.6396100 112.8091354  84.5956815 103.8162729 113.7309319  84.4077799
 104.4352934 112.4949773  85.0251195 111.7264282  95.6980722  90.4705030
 111.3828551  96.5882363  90.3944141 112.0943244  95.5082379  89.6074615
  99.7950132 108.0214252  83.2893633 100.6325354 108.4311261  83.0727340
  99.9728400 107.0813694  83.2593826 111.6914564 105.6889333  78.9777466
 111.1761188 106.4593937  79.2165853 111.4191873 105.0154469  79.6010527
 109.2761675 100.5339034  84.0362704 108.4203272 100.1445884  83.8568343
 109.6888627 100.6130994  83.1762489 110.8060822  98.0685377  88.4354264
 110.3025618  98.0315512  87.6222069 111.0991429  98.9778120  88.4950920
 107.0503708  98.1524107  87.4420445 107.9156705  97.9566915  87.0826335
 107.1181217  97.9234458  88.3689802 111.4800868 103.5616425  80.8037247
 111.1751003 103.8762574  81.6547390 112.4331310 103.6397845  80.8464580
 109.9247299 109.7206648  82.4530201 109.3968661 108.9859408  82.1403438
 109.4234802 110.4981325  82.2070169 104.6566027 100.3826315  84.8136812
 105.2309779 100.1601496  84.0810005 105.2437009 100.4515009  85.5665414
 104.9835614 102.4130776  78.8332698 104.1472926 102.7505462  79.1541972
 104.8440384 102.2779755  77.8959834 106.9588695  97.2567563  83.5411882
 106.3053107  96.9416581  82.9168496 106.9169169  96.6343304  84.2671705
 108.0699900 107.5386859  75.4565174 107.1626961 107.3076112  75.6556323
 108.5670932 106.7424478  75.6439155 110.1926435 103.7449497  87.8659529
 109.2748996 103.9664444  87.7081217 110.6086579 103.8195807  87.0071237
 110.9761483 105.1440913  82.9962210 111.7233302 105.6562310  82.6869332
 111.2453072 104.8224965  83.8566603 109.2488133 107.6399453  79.9789164
 108.3399352 107.3558486  80.0761634 109.2783217 108.0598532  79.1192471
 113.4240320 102.1798029  84.9780999 112.6863077 101.6675415  85.3091241
 113.6767094 101.7398411  84.1664276 113.5251947  94.9574281  85.5722768
 113.8310824  94.0971644  85.2848683 114.2504552  95.5491901  85.3721762
  99.8176303 105.3604967  83.9604366  99.6200703 104.7674328  83.2355433
  99.2622967 105.0557178  84.6780305 107.7973027 105.2528074  86.0798959
 107.8521637 104.3001910  86.0041436 106.9864229 105.4087513  86.5640258
 108.9464221 109.1808197  77.3177242 108.5083651 108.4644056  76.8582880
 109.6874662 109.4084312  76.7562334 105.7365387 103.8705134  83.8389338
 104.9233253 104.1699304  84.2454530 106.2324381 103.4760822  84.5563820
 105.2279462 101.4423489  89.4550573 105.8678841 101.3012248  88.7573536
 104.3956992 101.1558003  89.0789175 106.0039766 110.7425920  85.5685565
 106.7980364 110.2476240  85.3668140 105.2931458 110.2143783  85.2053271
 102.3122529 104.8869001  81.6445318 101.3820117 104.8253457  81.8615280
 102.4080001 104.3644954  80.8481959 102.2308078 101.4123814  84.2323560
 102.4914895 102.3269147  84.1232720 103.0525250 100.9448257  84.3820173
 103.7033003 102.8261571  91.4022384 104.3756057 102.6178934  90.7535033
 102.8762790 102.6283657  90.9627617 104.8573994 102.2578003  76.0330604
 103.9803461 102.1366804  75.6692851 105.3331747 101.4664081  75.7809493
  96.3776134 107.0455163  86.1272111  97.0647174 106.7316893  85.5393127
  96.2224263 107.9496527  85.8539363 101.1810857 101.9345359  90.5557135
 101.0969045 101.3271029  89.8207545 100.3593563 102.4254378  90.5566631
 111.3534570 100.4198923  85.9227330 111.8503270  99.6668885  85.6028400
 110.5821552 100.4563239  85.3570540 107.9369539 102.5616306  85.6499015
 107.5667327 102.0087346  86.3379920 108.4328632 101.9574439  85.0974015
 115.8236903 105.0187929  84.0315788 116.2897355 105.8515921  83.9576090
 116.2744403 104.5532911  84.7361046 113.7953565  97.3868516  88.0706689
 112.8816645  97.6172743  88.2388896 114.2246667  97.4706960  88.9220721
  95.9544111 105.1255756  88.3989579  95.9928210 104.5919347  89.1926697
  95.4484403 104.5990962  87.7800556 103.3334873  99.9720297  91.8952121
 103.3976199 100.8335127  91.4829519 103.2701993  99.3594298  91.1624479
  99.5852688 103.8519858  81.4743510  99.8806129 102.9430537  81.4210564
  98.6840724 103.8307598  81.1524512 103.1146935 101.9275855  87.4571059
 102.3933521 102.5411823  87.3178532 103.9040191 102.4633620  87.3787705
 101.3140530 101.5333956  81.5982835 100.9853236 100.6531335  81.4157941
 101.6679900 101.4781625  82.4859224 104.4282353 101.8206926  81.9658313
 104.7678425 102.3492847  81.2436921 104.8754473 102.1587332  82.7416879
 107.1225794 100.2043976  91.4161381 106.7822614  99.4051789  91.8182061
 106.4164800 100.5045687  90.8438214 107.7742266  97.2893289  89.8688704
 108.5968335  96.8153767  89.7467594 108.0180329  98.0683773  90.3687390
 106.4150500 100.3181547  80.1651606 107.1358863 100.6962800  79.6615322
 105.7915804 101.0370424  80.2686584 110.5581623 101.0226696  81.1009938
 110.7745237 101.9051334  80.7998766 110.0775690 100.6312910  80.3715580
 105.2980844 103.9812409  87.6780682 105.1525425 104.2952713  88.5704964
 104.8206048 104.5997310  87.1251581 107.1577227 100.9714957  87.7261572
 107.1438796 100.0756051  87.3893870 107.8749655 100.9785621  88.3599858
 109.0103358 101.4052298  89.7714699 108.7521136 102.3269368  89.7699030
 108.4788398 101.0082732  90.4615164  99.7726506 106.5217754  90.6168344
  99.2279975 107.2977562  90.7488618 100.6505856 106.8688558  90.4587465
 106.5614123  99.8529338  82.9949142 106.6830034  98.9245984  83.1940030
 106.2716166  99.8668024  82.0827458 109.4305314  97.5384248  86.1315862
 109.4527010  97.6023581  85.1767842 109.8473373  96.6988757  86.3256368
 101.0049142 113.5353079  85.5408895 101.8307162 113.2356851  85.1607539
 100.6543194 112.7660701  85.9898684  99.2057747 111.4539405  86.4997829
  98.3689655 111.0261580  86.3181830  99.1781392 111.6471849  87.4368620
 105.5344182 111.4383470  81.0865029 105.6832302 112.1218935  80.4331702
 106.3410626 111.4188560  81.6014485 103.2896815 107.4648648  82.0926098
 103.0442857 106.5610978  82.2906308 103.4592730 107.4665799  81.1505576
 102.5592463 103.1977006  79.5912260 101.8661708 103.2721361  78.9352296
 102.3144215 102.4337349  80.1133777 111.2306119  94.7572607  86.9951750
 111.5107873  94.0895796  87.6212177 112.0156726  94.9501703  86.4826414
 109.4186386 105.2692414  75.8992829 110.3645491 105.1398622  75.9681247
 109.0400631 104.5307076  76.3762257 115.3908271  96.9348420  85.8619721
 115.1933092  96.6263508  86.7463053 116.0007976  97.6610059  85.9917651
 107.6029303 103.1942390  75.8347714 106.6960759 102.8975503  75.9110428
 107.8805284 102.8972208  74.9682001  98.5207244 104.5148753  86.2846761
  98.2010028 103.6614062  85.9921135  97.9740672 104.7297332  87.0404728
 109.2191369  97.7379280  81.9891956 108.4092097  97.3926365  82.3647202
 109.9075786  97.4286823  82.5779567 111.1481917  96.8157327  83.6116252
 111.7012956  97.2352780  84.2706275 111.3852004  95.8893075  83.6539208
 106.3728088 100.0529325  75.9759694 107.2347252 100.3784224  76.2355511
 106.5578432  99.2660821  75.4632759  98.3895504 108.1351665  88.2539882
  97.6958975 107.7205618  87.7409837  99.1368495 108.1772201  87.6573301
 114.5260724  98.9257852  83.1194917 113.9459393  99.5842656  82.7372969
 114.2596657  98.1035196  82.7082334 112.9764291  98.3262909  85.3216237
 113.4764069  98.4379444  84.5130556 113.6199899  98.0223962  85.9617045
 100.3032246 108.0669919  86.1305897 100.2802934 108.1657606  85.1787780
 100.6132883 108.9135069  86.4523063 113.3085602 101.0857942  82.1751265
 112.4211457 101.3707593  81.9571460 113.7239591 100.9251705  81.3278542
 116.6600139 101.1104463  85.8905604 117.4360529 101.6000916  86.1630221
 115.9348273 101.5362517  86.3477474 113.2826626 106.6012478  82.3901555
 113.2261828 107.0581029  81.5509187 113.8354969 105.8403163  82.2124398
 117.0931432 102.3902210  83.2151675 116.8368366 101.9898846  84.0459882
 116.4684300 103.1046004  83.0901814 107.3257531  97.2925368  79.2639403
 107.3136201  98.2367208  79.4207673 108.2180953  97.1095514  78.9698864
 111.1409650  93.8868145  83.5185339 110.3742046  93.3326632  83.6642022
 111.5520355  93.9590014  84.3799491  39.7820030  -6.6863600  71.0656644
  39.2184895  -6.7773663  70.2972932  39.6672425  -7.5063695  71.5459136
  44.4052997  -7.3864224  81.0345959  44.3941638  -7.7811426  80.1626462
  44.5673637  -8.1198152  81.6279730  37.3284462  -5.1912408  73.9040864
  38.1205754  -5.5321583  73.4887164  37.5681112  -5.0817433  74.8243018
  45.3619589  -3.0192632  66.3771109  44.7107569  -2.4338551  65.9905123
  46.1563952  -2.4886437  66.4366146  39.2875216  -5.9303495  66.7758243
  40.0606092  -6.4774508  66.6371119  39.6400615  -5.0659245  66.9872705
  41.1260259  -4.6027112  79.9825143  40.8350125  -3.6981482  79.8671809
  41.7617243  -4.5610585  80.6969212  42.0516465  -7.2250264  76.5726502
  42.6480038  -7.4494242  75.8583465  42.1091437  -7.9665518  77.1751950
  46.8394854  -5.3302200  66.9140093  46.2040687  -5.2567573  67.6260998
  46.5092260  -4.7408601  66.2359172  41.3437783  -7.8682723  66.6101068
  41.2274041  -8.5437819  67.2782152  41.4540042  -8.3550349  65.7933221
  46.0850144  -4.9165697  76.9774936  45.7850867  -4.0140658  76.8690743
  45.7401203  -5.1833514  77.8296089  39.5362625  -8.4651900  73.0111641
  38.6113122  -8.5975686  73.2189332  39.7847038  -7.6857681  73.5081583
  41.0670923   1.8478623  69.9445904  40.9894953   2.7986449  70.0234384
  40.4632567   1.5024496  70.6020830  41.8134526  -8.1708058  82.1625238
  42.5549210  -7.6323014  81.8860061  41.1071511  -7.5441769  82.3196790
  47.2889865  -6.0278917  80.7597399  47.6973221  -6.4696507  80.0152032
  46.5667127  -6.6026290  81.0131592  47.6118680  -5.4677727  74.5149688
  46.9827542  -5.3032013  73.8125756  47.2244342  -5.0536117  75.2860652
  51.4907912  -4.5323289  71.8694052  50.8058950  -4.1524387  71.3191085
  51.5751761  -3.9227962  72.6026000  43.1646642  -5.7303319  71.7799773
  43.6284987  -5.4515616  70.9904396  42.9003440  -6.6319874  71.5972864
  40.0570723  -6.1831837  74.7179537  40.6272080  -5.7544569  74.0797021
  40.6478835  -6.4649252  75.4163722  49.8604671  -4.0091374  76.6411753
  50.6822115  -4.4111187  76.3594434  49.8567074  -4.1123140  77.5927869
  43.6261275  -4.4607331  78.7972463  43.6905707  -3.9986924  79.6330635
  42.9172199  -5.0909966  78.9254773  43.3409292  -2.7939224  68.6651444
  43.2054967  -1.9487688  69.0936291  43.8819105  -2.5919946  67.9017377
  36.7938690  -5.2763786  69.2379369  37.3063210  -4.4820535  69.3884933
  37.4461403  -5.9737495  69.1712970  38.6033574  -2.1598029  71.3202122
  38.7800203  -1.2380065  71.1323106  39.3990408  -2.4739610  71.7496502
  44.9677769  -2.1715657  82.7951786  44.5241623  -2.9579279  82.4772690
  45.6294982  -1.9836507  82.1295677  39.7264890  -0.6419856  77.3212464
  40.2772315  -0.7702792  76.5489458  38.8876366  -0.3424966  76.9707357
  47.0659007  -1.8912857  80.8233187  47.0477482  -1.0703976  80.3313456
  47.9878927  -2.0158782  81.0483328  43.5232061  -4.3768728  81.6656695
  44.0560398  -5.1380440  81.4356003  42.9946142  -4.6695076  82.4080850
  44.8884774  -5.2482735  69.1775507  44.3606135  -5.9829976  68.8648745
  44.3872276  -4.4708059  68.9315476  43.0337374  -7.4302525  62.1810480
  42.1264436  -7.6613272  62.3801629  43.5308406  -8.2264906  62.3684462
  45.9405453   1.2794982  65.1007167  45.2667152   1.5826679  65.7092124
  46.3271275   2.0824063  64.7512624  44.2125607  -7.3289930  66.7034470
  43.3036827  -7.6130897  66.8006940  44.2420691  -6.9090852  65.8437777
  49.4444875  -3.7183341  70.4725638  48.9907202  -4.5592431  70.5290829
  48.8138841  -3.0821942  70.8100418  47.8877814  -1.8806844  71.4075456
  48.1800788  -1.3201787  70.6887822  48.3976435  -1.5878283  72.1628615
  43.9101695  -5.7881186  64.0422549  43.4721125  -6.5045327  63.5828186
  44.6512136  -5.5605072  63.4807640  42.8511439  -1.1026493  72.4968909
  42.8087618  -0.8765647  71.5677441  43.7674138  -1.3363118  72.6454711
  52.0544190  -5.4447462  75.1110139  52.4880696  -5.5372173  75.9593193
  52.7675770  -5.4689962  74.4730155  40.9677240  -4.2263464  72.2930872
  41.7617838  -4.7213144  72.0913447  40.2568932  -4.7545601  71.9298578
  45.7872084  -1.8445368  76.6443240  45.8409107  -1.2754432  77.4120956
  44.9186866  -1.6743483  76.2797277  47.9774848  -5.2517019  83.2183905
  47.8260354  -5.4806467  82.3013989  47.9679527  -4.2946418  83.2315250
  44.7460184  -7.6785106  78.2030172  45.6752244  -7.5273947  78.0299139
  44.3251214  -7.5901085  77.3478818  43.5448516  -3.6534442  75.9728709
  43.4059602  -4.0215657  76.8454647  42.7563112  -3.1386802  75.8012667
  44.1396668   1.4474655  67.3154246  44.3148424   0.9762698  68.1299868
  43.4529456   2.0740421  67.5435506  45.0953731  -4.2752839  73.3617547
  44.7603564  -4.3152069  74.2575197  44.5957677  -4.9408123  72.8887957
  48.0312923  -6.9296805  63.6354607  47.4142093  -7.6549977  63.5387659
  47.5629411  -6.1687444  63.2921681  49.6867054  -2.2197896  81.2960387
  49.6279601  -2.9038676  80.6290970  50.0886573  -1.4778906  80.8441013
  38.7057753   4.5964017  74.0894106  38.9454351   5.2282542  74.7673124
  37.8626950   4.2452057  74.3759465  49.6884462  -4.2558312  79.5274367
  48.8011240  -4.5932391  79.6500766  50.2583013  -4.9875281  79.7643132
  43.2185615   0.4043140  76.4935610  43.1455787   1.2098111  77.0054914
  42.7763008   0.6035106  75.6683631  43.0075395  -0.3585090  70.0038431
  42.2242917   0.1836590  70.0976656  43.7068140   0.1588890  70.4032673
  45.6784299   0.3029974  78.6493769  46.3912271   0.9377439  78.5769670
  45.1874327   0.3993840  77.8333770  47.4001825  -5.7918773  70.2211060
  46.4658104  -5.6717311  70.0515765  47.5778494  -6.6946307  69.9571070
  40.7296212  -1.9475583  79.4699339  41.4305672  -1.3139100  79.6228734
  40.2591327  -1.6060851  78.7094979  48.8550608  -3.6057633  67.7547246
  49.1310452  -3.7201038  68.6641120  47.9855107  -4.0040148  67.7159419
  45.4904672   0.6428718  71.3980060  45.6727066  -0.1749626  71.8607812
  46.3137658   0.8596410  70.9604950  45.8246837  -0.4303097  68.6595109
  46.3534604  -0.9410642  68.0465271  46.0875057  -0.7460567  69.5240642
  36.3263930  -2.4139228  76.4030442  36.9117367  -3.1595540  76.5358346
  36.1288769  -2.1035271  77.2867106  39.1802585   0.6212020  71.4192884
  38.5112961   1.1058147  70.9356924  39.0415455   0.8681240  72.3336263
  43.3207854   2.6555763  78.0175543  43.8726162   2.8187385  78.7824628
  43.6614047   3.2460201  77.3455568  48.1718728  -2.5182979  83.8724197
  48.7158632  -1.9053021  83.3779152  47.5905573  -1.9603401  84.3891210
  46.4576241   0.6037739  75.0039225  46.3327381  -0.1972521  74.4950170
  47.1155332   1.0983932  74.5153195  48.5211150  -1.5953241  76.6318775
  47.5741485  -1.7147890  76.5597102  48.8693923  -2.4830743  76.7145036
  45.5257583  -1.8000525  72.8323127  45.3782545  -2.7283817  73.0130697
  46.3511076  -1.7780434  72.3480203  49.1291705  -0.9771966  73.9188000
  50.0538252  -1.1829105  73.7812451  48.9607008  -1.2255565  74.8277342
  48.9187021  -0.4586299  69.2750091  49.0923899  -1.0239876  68.5223944
  49.4115912   0.3414596  69.0929581  49.9062193  -1.1419534  66.3746990
  50.6013098  -0.5212842  66.5934304  50.2485344  -1.9924183  66.6499368
  51.8053617  -3.6919829  67.9034321  52.3304941  -3.3532556  67.1783641
  51.7175969  -4.6272813  67.7197455  43.4673665   0.2214245  80.0324197
  43.7760792  -0.0236608  80.9046897  44.2649147   0.4260883  79.5443067
  43.4894277   2.3752155  72.2629574  43.0499268   1.8828533  72.9562430
  44.2402394   1.8325122  72.0221649  35.9686616  -1.4336305  72.2654202
  36.7944636  -1.7332533  71.8852845  35.6180668  -2.2028682  72.7143990
  40.9368150  -2.0809836  74.3351875  40.3148159  -2.7439131  74.0354103
  41.6073016  -2.0548704  73.6525523  34.1695221  -3.5149978  73.2243135
  33.3327130  -3.9427804  73.0427137  34.1418867  -3.3217535  74.1613927
  51.4947523  -3.0586925  83.2085519  50.7043066  -3.0762786  82.6690018
  51.2580877  -2.5198631  83.9634555  40.4981656  -3.5305913  67.8110336
  40.6469777  -2.8470449  67.1577009  41.3048100  -3.5500823  68.3259792
  53.1163595  -3.7897517  80.7660269  52.8248403  -3.4267537  81.6023730
  52.5035726  -4.5030509  80.5873601  38.2534289  -7.5040735  68.8171405
  38.0080331  -8.4078405  69.0151615  38.4230204  -7.5023585  67.8750883
  43.9977062  -1.0357783  65.2822083  43.4251029  -0.4167595  64.8292555
  44.5709856  -0.4858421  65.8162005  47.2174322  -0.7520632  66.4130666
  48.1504995  -0.8175071  66.6163541  47.1297535   0.0835634  65.9545198
  49.8462338  -1.4354762  63.3734613  49.7675970  -1.7694899  64.2670371
  50.6672005  -0.9432994  63.3726086  44.2662553  -5.6479224  84.0838793
  45.1865562  -5.4700625  84.2778839  44.2312136  -6.5923178  83.9318492
  37.2624626  -7.7378189  76.7261574  37.4810635  -6.8061081  76.7449608
  37.6750399  -8.0970215  77.5116378  41.9983761  -8.7347844  84.9329385
  41.5150843  -7.9347484  85.1393274  42.0844700  -8.7239900  83.9796829
  37.9257098  -4.8443310  76.9697818  38.8800352  -4.8759367  76.9027750
  37.7269622  -5.3052686  77.7848044  38.5156481  -6.2742194  79.5368616
  39.3349369  -5.7798115  79.5603453  38.7893288  -7.1910226  79.5086184
  36.2807327   0.6976310  73.9868016  36.1461795  -0.0623289  73.4206014
  35.8639389   1.4217210  73.5196805  47.4166290  -4.1186767  62.9944592
  48.1202140  -3.9136764  63.6102247  46.6928939  -3.5510005  63.2593675
  39.4376453   1.5945627  74.1986459  39.3208837   2.5391059  74.0965149
  38.6168899   1.2919188  74.5872258  49.3252988  -3.6804238  65.0443052
  50.1598592  -4.1123039  64.8620526  49.1637331  -3.8522224  65.9719946
  46.2944787  -4.8723212  85.7352954  47.1635947  -4.6982560  85.3739589
  45.8151538  -4.0528796  85.6128683  40.4630967   2.2473889  77.4142387
  41.3658214   2.2797499  77.7308882  40.2368337   1.3174340  77.4288723
  42.2184569   1.0004875  74.0752466  41.2680200   1.0006737  73.9616838
  42.5217055   0.2537610  73.5588501  57.9537263   6.8365414  75.1398228
  58.5915673   6.7172161  74.4361568  57.8358106   7.7846258  75.1986180
  54.7626969   6.7892842  75.0759753  54.4245480   6.6733906  74.1880288
  55.6316737   6.3884007  75.0560759  50.6213785   8.6428318  71.0656644
  50.0578650   8.5518255  70.2972932  50.5066180   7.8228223  71.5459136
  55.2446752   7.9427693  81.0345959  55.2335393   7.5480492  80.1626462
  55.4067391   7.2093766  81.6279730  48.1678217  10.1379510  73.9040864
  48.9599509   9.7970334  73.4887164  48.4074867  10.2474485  74.8243018
  50.1268971   9.3988423  66.7758243  50.8999847   8.8517410  66.6371119
  50.4794369  10.2632672  66.9872705  51.9654013  10.7264805  79.9825143
  51.6743879  11.6310436  79.8671809  52.6010997  10.7681333  80.6969212
  52.8910220   8.1041654  76.5726502  53.4873792   7.8797676  75.8583465
  52.9485191   7.3626399  77.1751950  52.4635248   5.5581089  64.4076693
  52.7160769   5.0362610  63.6460156  51.5259807   5.3947235  64.5103377
  57.5078531   4.5616867  72.2151436  58.2941620   4.1436291  71.8641853
  57.7717235   5.4662960  72.3833085  57.6788609   9.9989718  66.9140093
  57.0434441  10.0724344  67.6260998  57.3486015  10.5883317  66.2359172
  62.9086958   4.4992101  73.1184415  63.6412130   3.9291317  73.3522244
  62.1526314   4.1113701  73.5590920  52.1831537   7.4609195  66.6101068
  52.0667795   6.7854098  67.2782152  52.2933797   6.9741569  65.7933221
  54.5263078   6.9219342  70.3147757  54.1621285   6.3949963  71.0260679
  55.3830194   6.5317811  70.1414243  60.4312379  -1.7886325  77.5779023
  60.0995703  -0.9190914  77.3540238  59.8357992  -2.1050041  78.2573054
  54.1668565   1.9509242  65.3109106  54.3342967   2.8189478  65.6779577
  53.9765734   2.1136524  64.3870395  56.9243898  10.4126221  76.9774936
  56.6244621  11.3151260  76.8690743  56.5794958  10.1458404  77.8296089
  50.3756380   6.8640018  73.0111641  49.4506876   6.7316232  73.2189332
  50.6240793   7.6434237  73.5081583  60.3241042   2.9308761  74.6572374
  59.4157919   2.8624169  74.3631135  60.2728638   3.4080706  75.4854199
  54.1457786   4.4066899  66.2955773  54.0257411   4.8523950  67.1341253
  53.4510374   4.7552217  65.7369311  47.7365191   6.5073291  73.8455430
  47.8657572   6.7607770  74.7594841  47.0562642   7.1000999  73.5260085
  54.3981908   4.3498407  82.6007271  53.6215242   4.9092327  82.5910135
  55.0372471   4.8355190  83.1222141  62.1902688   1.1325199  76.4350247
  61.5477069   1.4257732  75.7890042  61.6857617   1.0178120  77.2403444
  59.8442852   4.8788373  67.1236107  60.7560708   5.1115759  66.9483804
  59.3352499   5.4625417  66.5611185  52.6528280   7.1583860  82.1625238
  53.3942964   7.6968904  81.8860061  51.9465266   7.7850149  82.3196790
  58.1283620   9.3013000  80.7597399  58.5366976   8.8595411  80.0152032
  57.4060881   8.7265628  81.0131592  54.4814690   4.2385607  78.1330956
  55.3275885   4.6625021  78.2765605  54.4213327   3.5819231  78.8269519
  58.4512434   9.8614191  74.5149688  57.8221297  10.0259905  73.8125756
  58.0638096  10.2755801  75.2860652  62.3301666  10.7968629  71.8694052
  61.6452704  11.1767530  71.3191085  62.4145516  11.4063955  72.6026000
  57.6314135   1.8989975  79.7912130  57.3875067   2.6532036  79.2546406
  57.9074066   2.2775323  80.6259377  59.5852598   8.4428588  78.4689395
  59.7969493   9.0860348  77.7923777  59.5382346   7.6090904  78.0011326
  57.1878827   1.0546408  75.3725968  56.3263306   1.3527662  75.6642705
  57.2141261   1.2716807  74.4407000  54.0040396   9.5988599  71.7799773
  54.4678742   9.8776302  70.9904396  53.7397194   8.6972044  71.5972864
  50.8964477   9.1460081  74.7179537  51.4665834   9.5747349  74.0797021
  51.4872589   8.8642665  75.4163722  52.9409282   5.7211751  68.5889338
  53.6433326   6.1732795  69.0563265  52.6089911   5.0795570  69.2169232
  51.3889644   4.3123508  82.9640548  50.7588304   4.9939789  83.1975945
  51.2825732   4.2006590  82.0193686  46.6834616   3.9795304  73.8906472
  45.8933670   4.2352833  73.4146583  47.1745864   4.7943642  73.9958513
  60.6998426  11.3200543  76.6411753  61.5215870  10.9180731  76.3594434
  60.6960829  11.2168777  77.5927869  48.6349362   4.3439883  70.8489949
  47.8380525   4.4558578  71.3673444  48.4074954   4.6826536  69.9830839
  54.4655029  10.8684587  78.7972463  54.5299462  11.3304994  79.6330635
  53.7565953  10.2381951  78.9254773  44.9672319   4.2325795  76.3221463
  45.2180358   5.1172804  76.5879039  45.5031868   4.0530396  75.5496555
  68.7904419   7.6639292  72.9896724  68.0368127   7.0946690  72.8340729
  68.9251960   7.6301956  73.9367359  54.1803047  12.5352694  68.6651444
  54.0448722  13.3804230  69.0936291  54.7212859  12.7371972  67.9017377
  50.6670387  -1.3855726  85.3265799  50.2737332  -1.9389528  86.0013443
  51.4836527  -1.0745148  85.7172316  47.6332444  10.0528132  69.2379369
  48.1456965  10.8471382  69.3884933  48.2855157   9.3554423  69.1712970
  53.5838348   0.0302153  82.9186055  54.3248061   0.6309306  82.8390518
  53.8156270  -0.7120209  82.3604098  48.7279686   5.2158520  81.1964285
  48.6133201   4.3143777  81.4971384  47.8724203   5.4622217  80.8449102
  55.8071523  13.1576261  82.7951786  55.3635377  12.3712639  82.4772690
  56.4688737  13.3455411  82.1295677  57.9052761  13.4379060  80.8233187
  57.8871237  14.2587942  80.3313456  58.8272681  13.3133136  81.0483328
  54.3625815  10.9523190  81.6656695  54.8954152  10.1911478  81.4356003
  53.8339897  10.6596842  82.4080850  45.5981361   8.3816786  70.0138939
  46.4356583   8.7913795  69.7972647  45.7759629   7.4416229  69.9839133
  57.4945793   6.0491867  65.7022772  56.9792417   6.8196472  65.9411160
  57.2223102   5.3757003  66.3255834  55.0792904   0.8941568  70.7608011
  54.2234501   0.5048418  70.5813649  55.4919856   0.9733529  69.9007796
  56.6092051  -1.5712089  75.1599570  56.1056846  -1.6081954  74.3467376
  56.9022658  -0.6619346  75.2196227  52.8534937  -1.4873359  74.1665752
  53.7187934  -1.6830551  73.8071642  52.9212446  -1.7163007  75.0935109
  62.4680067   8.8024222  67.6375946  61.6909510   8.4635381  67.1931108
  63.1471548   8.8076845  66.9630911  57.2832096   3.9218959  67.5282553
  56.9782232   4.2365108  68.3792697  58.2362538   4.0000379  67.5709886
  55.7278528  10.0809182  69.1775507  55.1999890   9.3461942  68.8648745
  55.2266031  10.8583859  68.9315476  60.7071374   8.2758203  74.2942554
  60.0495049   8.9657464  74.3822682  61.5111773   8.6654635  74.6376540
  50.4597256   0.7428849  71.5382119  51.0341008   0.5204030  70.8055312
  51.0468238   0.8117543  72.2910720  59.5176833   6.6302576  72.3446495
  60.0308715   7.2632567  72.8468205  60.1678057   6.0303771  71.9789855
  50.7866843   2.7733310  65.5578004  49.9504155   3.1107996  65.8787279
  50.6471613   2.6382290  64.6205141  52.7619924  -2.3829902  70.2657188
  52.1084336  -2.6980885  69.6413803  52.7200398  -3.0054162  70.9917011
  53.8731128   7.8989393  62.1810480  52.9658190   7.6678646  62.3801629
  54.3702160   7.1027012  62.3684462  55.9957664   4.1052031  74.5904836
  55.0780225   4.3266978  74.4326524  56.4117808   4.1798342  73.7316543
  56.7792712   5.5043447  69.7207516  57.5264531   6.0164844  69.4114638
  57.0484301   5.1827500  70.5811910  55.0519362   8.0001988  66.7034470
  54.1430581   7.7161020  66.8006940  55.0814446   8.4201066  65.8437777
  60.2838629  11.6108577  70.4725638  59.8300956  10.7699487  70.5290829
  59.6532596  12.2469975  70.8100418  59.2271549   2.5400563  71.7026306
  58.4894306   2.0277949  72.0336548  59.4798322   2.1000945  70.8909582
  58.7271568  13.4485074  71.4075456  59.0194543  14.0090131  70.6887822
  59.2370189  13.7413635  72.1628615  45.6207532   5.7207502  70.6849673
  45.4231932   5.1276862  69.9600739  45.0654196   5.4159712  71.4025611
  53.6004256   5.6130608  72.8044266  53.6552866   4.6604445  72.7286742
  52.7895458   5.7690047  73.2885564  54.7495450   9.5410731  64.0422549
  54.3114880   8.8246590  63.5828186  55.4905890   9.7686846  63.4807640
  51.5396616   4.2307668  70.5634645  50.7264481   4.5301838  70.9699837
  52.0355610   3.8363357  71.2809127  57.1370827   4.6949492  79.3949539
  57.4920215   4.9220966  80.2544004  57.7842959   5.0267869  78.7726794
  62.8668564   7.8167928  70.0998868  62.7286463   8.0069524  69.1720057
  62.5104783   8.5787311  70.5566919  51.0310691   1.8026023  76.1795880
  51.6710070   1.6614783  75.4818843  50.1988221   1.5160537  75.8034482
  62.8937944   9.8844455  75.1110139  63.3274451   9.7919744  75.9593193
  63.6069525   9.8601956  74.4730155  51.8070994  11.1028454  72.2930872
  52.6011593  10.6078774  72.0913447  51.0962687  10.5746317  71.9298578
  56.6265839  13.4846549  76.6443240  56.6802861  14.0537486  77.4120956
  55.7580620  13.6548434  76.2797277  48.1153758   5.2471536  68.3690625
  47.1851346   5.1855991  68.5860587  48.2111230   4.7247488  67.5727266
  48.0339307   1.7726348  70.9568866  48.2946124   2.6871682  70.8478027
  48.8556479   1.3050791  71.1065479  49.5064232   3.1864106  78.1267691
  50.1787286   2.9781468  77.4780340  48.6794019   2.9886192  77.6872923
  63.7553494   9.9268156  77.6443025  63.9489384  10.8313966  77.8902299
  63.6554112   9.4675575  78.4781610  55.4089804  -0.1873953  80.1433352
  54.7617719   0.5115996  80.0497828  56.1790820   0.2462190  80.5109600
  58.8168602  10.0774899  83.2183905  58.6654109   9.8485450  82.3013989
  58.8073282  11.0345500  83.2315250  55.5853939   7.6506811  78.2030172
  56.5145999   7.8017971  78.0299139  55.1644969   7.7390832  77.3478818
  54.3842270  11.6757476  75.9728709  54.2453356  11.3076260  76.8454647
  53.5956867  12.1905115  75.8012667  55.9347486  11.0539079  73.3617547
  55.5997318  11.0139849  74.2575197  55.4351431  10.3883794  72.8887957
  49.9091730   6.4606709  78.8870128  49.7711527   5.7286947  79.4881667
  50.8196653   6.3715609  78.6054316  58.8706677   8.3995113  63.6354607
  58.2535848   7.6741941  63.5387659  58.4023166   9.1604473  63.2921681
  52.5374030   6.1726668  78.3753808  53.2473649   5.5319860  78.3340426
  52.4943338   6.4239563  79.2979989  60.5260809  13.1094021  81.2960387
  60.4673355  12.4253241  80.6290970  60.9280327  13.8513011  80.8441013
  51.2502964   3.1591886  80.1949447  50.7140321   2.7082624  80.8471044
  50.6619673   3.2937795  79.4519912  50.6605223   2.6180537  62.7575911
  49.7834689   2.4969338  62.3938158  51.1362976   1.8266616  62.5054800
  60.5278216  11.0733605  79.5274367  59.6404995  10.7359527  79.6500766
  61.0976767  10.3416636  79.7643132  42.1807363   7.4057697  72.8517418
  42.8678403   7.0919427  72.2638433  42.0255492   8.3099062  72.5784670
  46.9842085   2.2947893  77.2802442  46.9000274   1.6873563  76.5452852
  46.1624792   2.7856912  77.2811938  57.1565799   0.7801457  72.6472637
  57.6534499   0.0271419  72.3273707  56.3852781   0.8165774  72.0815846
  65.0095557   6.4841823  74.2890928  64.9985433   7.3666538  73.9184861
  64.1412936   6.1313373  74.0945465  56.5178053  15.6321892  78.6493769
  57.2306025  16.2669356  78.5769670  56.0268082  15.7285758  77.8333770
  58.2395580   9.5373144  70.2211060  57.3051859   9.6574607  70.0515765
  58.4172248   8.6345611  69.9571070  53.7400768   2.9218840  72.3744321
  53.3698556   2.3689880  73.0625227  54.2359860   2.3176973  71.8219321
  61.6268131   5.3790464  70.7561094  62.0928584   6.2118455  70.6821397
  62.0775632   4.9135445  71.4606353  51.5689967  13.3816335  79.4699339
  52.2699426  14.0152818  79.6228734  51.0985082  13.7231067  78.7094979
  59.6944362  11.7234285  67.7547246  59.9704206  11.6090879  68.6641120
  58.8248861  11.3251770  67.7159419  59.5984794  -2.2528949  74.7951996
  58.6847874  -2.0224723  74.9634203  60.0277896  -2.1690505  75.6466028
  59.3691253   5.9360942  77.2951890  58.7162703   6.1836850  76.6404342
  59.7471632   5.1225081  76.9614367  55.4178826   6.6780754  83.7817927
  54.7419463   6.5774883  84.4520302  56.2406459   6.5219967  84.2453924
  41.7575339   5.4858290  75.1234885  41.7959439   4.9521881  75.9172003
  41.2515632   4.9593496  74.5045862  54.1601608  17.9847681  78.0175543
  54.7119917  18.1479302  78.7824628  54.5007802  18.5752119  77.3455568
  49.1366102   0.3322831  78.6197428  49.2007428   1.1937662  78.2074825
  49.0733222  -0.2803168  77.8869786  48.6118374   2.4045963  82.2670462
  49.2390413   2.0223041  82.8807986  47.7546293   2.1860165  82.6326154
  59.0112483  12.8108939  83.8724197  59.5552387  13.4238897  83.3779152
  58.4299328  13.3688517  84.3891210  45.3883917   4.2122392  68.1988817
  45.6837358   3.3033071  68.1455870  44.4871953   4.1910132  67.8769819
  48.9178164   2.2878389  74.1816365  48.1964750   2.9014357  74.0423839
  49.7071420   2.8236154  74.1033011  59.3604904  13.7338677  76.6318775
  58.4135240  13.6144028  76.5597102  59.7087677  12.8461175  76.7145036
  51.7204478  -0.3767184  80.4557017  52.2438879  -0.1304888  81.2183326
  51.5016811   0.4552850  80.0360154  47.1171759   1.8936490  68.3228142
  46.7884465   1.0133869  68.1403248  47.4711129   1.8384159  69.2104531
  56.3651337  13.5291393  72.8323127  56.2176300  12.6008100  73.0130697
  57.1904831  13.5511484  72.3480203  50.2313582   2.1809460  68.6903619
  50.5709654   2.7095381  67.9682228  50.6785702   2.5189866  69.4662186
  59.9685459  14.3519952  73.9188000  60.8932007  14.1462813  73.7812451
  59.8000763  14.1036353  74.8277342  52.9257023   0.5646511  78.1406687
  52.5853843  -0.2345676  78.5427367  52.2196029   0.8648221  77.5683521
  53.5773494  -2.3504177  76.5934011  54.3999564  -2.8243699  76.4712901
  53.8211558  -1.5713693  77.0932697  52.2181729   0.6784081  66.8896912
  52.9390091   1.0565334  66.3860629  51.5947033   1.3972958  66.9931890
  56.3612852   1.3829230  67.8255245  56.5776466   2.2653868  67.5244073
  55.8806919   0.9915444  67.0960887  51.1012073   4.3414944  74.4025989
  50.9556654   4.6555247  75.2950271  50.6237277   4.9599844  73.8496888
  52.9608456   1.3317492  74.4506879  52.9470025   0.4358585  74.1139177
  53.6780884   1.3388155  75.0845165  54.8134587   1.7654832  76.4960006
  54.5552365   2.6871903  76.4944337  54.2819627   1.3685266  77.1860470
  45.5757735   6.8820288  77.3413650  45.0311203   7.6580096  77.4733925
  46.4537085   7.2291093  77.1832772  52.3645352   0.2131872  69.7194449
  52.4861263  -0.7151482  69.9185336  52.0747394   0.2270558  68.8072764
  55.2336542  -2.1013218  72.8561169  55.2558239  -2.0373885  71.9013148
  55.6504601  -2.9408709  73.0501675  65.6120167   7.6342042  70.8940391
  66.0551313   6.8849367  70.4959514  64.7346677   7.6252178  70.5114123
  46.3623757   6.0090184  80.2343807  45.6205493   6.1572820  80.8208438
  46.0416501   6.2698450  79.3710557  62.6447371  11.6372089  67.9034321
  63.1698695  11.9759362  67.1783641  62.5569724  10.7019104  67.7197455
  54.3067420  15.5506163  80.0324197  54.6154546  15.3055309  80.9046897
  55.1042902  15.7552801  79.5443067  46.8080371  13.8955613  72.2654202
  47.6338391  13.5959385  71.8852845  46.4574423  13.1263236  72.7143990
  45.0088976  11.8141940  73.2243135  44.1720884  11.3864114  73.0427137
  44.9812621  12.0074383  74.1613927  51.8486431   1.7263869  83.9284381
  51.8974587   2.6025992  83.5462151  52.3908946   1.1841262  83.3556025
  62.3341277  12.2704993  83.2085519  61.5436821  12.2529131  82.6690018
  62.0974632  12.8093286  83.9634555  62.4539152   9.1197459  80.5218247
  62.5037157   8.9547466  81.4633770  62.3453076   8.2524718  80.1316128
  51.3375411  11.7986005  67.8110336  51.4863531  12.4821469  67.1577009
  52.1441854  11.7791095  68.3259792  59.7442915   5.1028387  81.8377554
  60.6452777   4.9634852  81.5461552  59.8190889   5.2682842  82.7775731
  54.0785720   2.4795242  80.6830740  53.2089029   2.7728808  80.4113329
  54.3145200   3.0635687  81.4038004  63.9557349  11.5394400  80.7660269
  63.6642157  11.9024381  81.6023730  63.3429480  10.8261409  80.5873601
  65.1553031   9.1047280  73.2862839  65.9899923   9.5437084  73.4500399
  65.2912160   8.6285933  72.4671085  62.2044537   6.6627015  79.2340327
  62.6798659   6.8554661  78.4259178  61.2810103   6.7186201  78.9883710
  49.0928044   7.8251182  68.8171405  48.8474086   6.9213512  69.0151615
  49.2623958   7.8268333  67.8750883  56.7824754  -1.3025141  78.1996160
  57.3006698  -0.5664114  77.8742649  56.4279887  -0.9961148  79.0342920
  48.3623691   3.5579540  66.3157566  47.6692936   3.6323895  65.6597602
  48.1175443   2.7939883  66.8379083  60.9046206   3.5392775  77.4668632
  61.8563629   3.6390873  77.4880856  60.7349657   2.7471044  77.9766717
  58.9260586   0.6248358  77.6528033  58.3310518   0.9053371  76.9574522
  58.6410282   1.1142259  78.4244774  63.3834284   6.7598895  76.5810932
  63.3510604   5.8214896  76.7670616  63.9934908   6.8382932  75.8476757
  55.2217615   5.6294948  62.6238136  56.1676720   5.5001156  62.6926554
  54.8431860   4.8909610  63.1007564  63.5328773   3.5509938  76.6269215
  63.0167821   2.7668395  76.4399144  64.4168721   3.2228655  76.7915734
  69.2010834   7.8214902  75.7216969  69.9314222   7.5600190  76.2824672
  68.5917779   7.0843624  75.7619037  67.2826131   5.9622764  76.3191420
  66.5559295   5.8278729  75.7107911  66.8673418   6.2699593  77.1248138
  55.1056307   9.6812694  84.0838793  56.0259317   9.8591293  84.2778839
  55.0705891   8.7368739  83.9318492  53.4060532   3.5544924  62.5593021
  52.4991987   3.2578037  62.6355735  53.6836513   3.2574742  61.6927307
  44.3238472   4.8751288  73.0092067  44.0041257   4.0216596  72.7166441
  43.7771901   5.0899866  73.7650035  48.1018380   7.5913729  76.7261574
  48.3204390   8.5230836  76.7449608  48.5144154   7.2321703  77.5116378
  55.0222598  -1.9018186  68.7137262  54.2123326  -2.2471101  69.0892508
  55.7107015  -2.2110642  69.3024874  56.9513146  -2.8240139  70.3361559
  57.5044185  -2.4044686  70.9951582  57.1883232  -3.7504391  70.3784515
  52.9746245   3.1646934  86.1164323  52.8742972   4.1141291  86.0476414
  52.7567787   2.8365173  85.2440393  52.1759317   0.4131859  62.7005000
  53.0378481   0.7386758  62.9600818  52.3609661  -0.3736645  62.1878066
  44.1926732   8.4954199  74.9785189  43.4990204   8.0808152  74.4655143
  44.9399723   8.5374736  74.3818608  60.3291953  -0.7139614  69.8440223
  59.7490622  -0.0554810  69.4618276  60.0627886  -1.5362269  69.4327641
  58.7795520  -1.3134556  72.0461544  59.2795298  -1.2018022  71.2375862
  59.4231127  -1.6173504  72.6862352  52.8377515   6.5944073  84.9329385
  52.3544597   7.3944433  85.1393274  52.9238454   6.6052018  83.9796829
  46.1063475   8.4272453  72.8551204  46.0834163   8.5260140  71.9033087
  46.4164111   9.2737604  73.1768370  48.7650853  10.4848608  76.9697818
  49.7194106  10.4532550  76.9027750  48.5663376  10.0239232  77.7848044
  49.3550235   9.0549724  79.5368616  50.1743124   9.5493803  79.5603453
  49.6287043   8.1381692  79.5086184  59.1116831   1.4460476  68.8996572
  58.2242686   1.7310127  68.6816766  59.5270820   1.2854240  68.0523848
  62.4631367   1.4706997  72.6150911  63.2391757   1.9603450  72.8875528
  61.7379502   1.8965051  73.0722780  64.9003926   2.1834616  73.6724851
  65.4948417   1.9430352  72.9618160  64.9730510   1.4641747  74.2998388
  58.2560045  11.2105151  62.9944592  58.9595895  11.4155153  63.6102247
  57.5322693  11.7781913  63.2593675  59.0857855   6.9615012  69.1146862
  59.0293056   7.4183564  68.2754494  59.6386197   6.2005697  68.9369704
  62.8962661   2.7504744  69.9396981  62.6399595   2.3501380  70.7705189
  62.2715529   3.4648538  69.8147120  67.2074999   5.4900817  72.4468273
  66.6474557   5.5594007  73.2199835  66.6018502   5.3141802  71.7267769
  59.8192634   8.1519793  66.4099391  59.7641438   7.9864065  65.4687835
  59.1938690   8.8595826  66.5661581  44.6085149   3.3887858  80.2360813
  45.2544013   2.8786812  80.7248038  44.4002300   4.1256539  80.8104238
  57.1338541  10.4568705  85.7352954  58.0029701  10.6309358  85.3739589
  56.6545293  11.2763122  85.6128683  53.1288760  -2.3472098  65.9884709
  53.1167430  -1.4030258  66.1452980  54.0212182  -2.5301952  65.6944170
  48.9482640   0.5355475  84.3335827  49.8114102   0.1792280  84.5439152
  48.3748051   0.1969370  85.0211232  68.7931017  22.1657331  75.1398228
  69.4309427  22.0464079  74.4361568  68.6751860  23.1138175  75.1986180
  65.6020723  22.1184759  75.0759753  65.2639235  22.0025824  74.1880288
  66.4710492  21.7175924  75.0560759  66.0840506  23.2719611  81.0345959
  66.0729147  22.8772409  80.1626462  66.2461146  22.5385684  81.6279730
  67.0407098  27.6391203  66.3771109  66.3895078  28.2245284  65.9905123
  67.8351461  28.1697398  66.4366146  62.8047768  26.0556723  79.9825143
  62.5137634  26.9602354  79.8671809  63.4404752  26.0973251  80.6969212
  68.3472286  19.8908785  72.2151436  69.1335375  19.4728208  71.8641853
  68.6110990  20.7954877  72.3833085  68.5182363  25.3281635  66.9140093
  67.8828196  25.4016262  67.6260998  68.1879769  25.9175234  66.2359172
  73.7480713  19.8284018  73.1184415  74.4805885  19.2583235  73.3522244
  72.9920068  19.4405619  73.5590920  71.2706133  13.5405592  77.5779023
  70.9389458  14.4101003  77.3540238  70.6751747  13.2241876  78.2573054
  65.0062319  17.2801160  65.3109106  65.1736722  18.1481396  65.6779577
  64.8159489  17.4428441  64.3870395  67.7637653  25.7418138  76.9774936
  67.4638376  26.6443177  76.8690743  67.4188712  25.4750322  77.8296089
  71.1634796  18.2600679  74.6572374  70.2551674  18.1916087  74.3631135
  71.1122392  18.7372624  75.4854199  65.2375662  19.6790324  82.6007271
  64.4608996  20.2384244  82.5910135  65.8766225  20.1647107  83.1222141
  73.0296443  16.4617117  76.4350247  72.3870823  16.7549650  75.7890042
  72.5251371  16.3470037  77.2403444  70.6836607  20.2080290  67.1236107
  71.5954463  20.4407677  66.9483804  70.1746254  20.7917334  66.5611185
  63.4922035  22.4875778  82.1625238  64.2336719  23.0260822  81.8860061
  62.7859020  23.1142066  82.3196790  68.9677374  24.6304918  80.7597399
  69.3760730  24.1887329  80.0152032  68.2454636  24.0557546  81.0131592
  65.3208444  19.5677525  78.1330956  66.1669639  19.9916938  78.2765605
  65.2607082  18.9111149  78.8269519  69.2906189  25.1906109  74.5149688
  68.6615051  25.3551823  73.8125756  68.9031851  25.6047718  75.2860652
  73.1695421  26.1260547  71.8694052  72.4846459  26.5059448  71.3191085
  73.2539270  26.7355873  72.6026000  68.4707890  17.2281893  79.7912130
  68.2268821  17.9823954  79.2546406  68.7467820  17.6067241  80.6259377
  70.4246352  23.7720506  78.4689395  70.6363248  24.4152265  77.7923777
  70.3776101  22.9382822  78.0011326  68.0272581  16.3838326  75.3725968
  67.1657060  16.6819580  75.6642705  68.0535016  16.6008725  74.4407000
  62.2283398  19.6415426  82.9640548  61.5982059  20.3231707  83.1975945
  62.1219486  19.5298507  82.0193686  71.5392180  26.6492461  76.6411753
  72.3609624  26.2472648  76.3594434  71.5354583  26.5460695  77.5927869
  65.3048784  26.1976504  78.7972463  65.3693216  26.6596911  79.6330635
  64.5959708  25.5673869  78.9254773  79.6298173  22.9931209  72.9896724
  78.8761882  22.4238608  72.8340729  79.7645715  22.9593874  73.9367359
  61.5064141  13.9436192  85.3265799  61.1131087  13.3902390  86.0013443
  62.3230281  14.2546770  85.7172316  64.4232102  15.3594071  82.9186055
  65.1641815  15.9601224  82.8390518  64.6550025  14.6171708  82.3604098
  59.5673440  20.5450438  81.1964285  59.4526955  19.6435695  81.4971384
  58.7117958  20.7914135  80.8449102  66.6465278  28.4868178  82.7951786
  66.2029132  27.7004557  82.4772690  67.3082491  28.6747329  82.1295677
  68.7446516  28.7670978  80.8233187  68.7264991  29.5879859  80.3313456
  69.6666436  28.6425053  81.0483328  65.2019570  26.2815108  81.6656695
  65.7347907  25.5203396  81.4356003  64.6733651  25.9888759  82.4080850
  68.3689265  11.3875174  77.1950337  68.0253534  12.2776815  77.1189448
  68.7368228  11.1976831  76.3319922  68.3339548  21.3783785  65.7022772
  67.8186171  22.1488389  65.9411160  68.0616856  20.7048921  66.3255834
  65.9186659  16.2233486  70.7608011  65.0628255  15.8340336  70.5813649
  66.3313610  16.3025446  69.9007796  67.4485805  13.7579829  75.1599570
  66.9450601  13.7209964  74.3467376  67.7416412  14.6672571  75.2196227
  63.6928691  13.8418558  74.1665752  64.5581688  13.6461367  73.8071642
  63.7606200  13.6128910  75.0935109  73.3073822  24.1316139  67.6375946
  72.5303265  23.7927299  67.1931108  73.9865303  24.1368763  66.9630911
  68.1225851  19.2510877  67.5282553  67.8175986  19.5657026  68.3792697
  69.0756293  19.3292297  67.5709886  71.5465129  23.6050121  74.2942554
  70.8888803  24.2949382  74.3822682  72.3505528  23.9946553  74.6376540
  70.3570588  21.9594493  72.3446495  70.8702469  22.5924485  72.8468205
  71.0071811  21.3595689  71.9789855  63.6013678  12.9462015  70.2657188
  62.9478090  12.6311032  69.6413803  63.5594152  12.3237756  70.9917011
  66.8351418  19.4343949  74.5904836  65.9173980  19.6558896  74.4326524
  67.2511562  19.5090259  73.7316543  67.6186466  20.8335365  69.7207516
  68.3658285  21.3456762  69.4114638  67.8878056  20.5119417  70.5811910
  71.1232384  26.9400495  70.4725638  70.6694711  26.0991405  70.5290829
  70.4926350  27.5761893  70.8100418  70.0665303  17.8692481  71.7026306
  69.3288060  17.3569867  72.0336548  70.3192077  17.4292862  70.8909582
  69.5665323  28.7776991  71.4075456  69.8588297  29.3382049  70.6887822
  70.0763944  29.0705552  72.1628615  70.1676931  10.6468733  72.2968075
  70.4735807   9.7866096  72.0093990  70.8929535  11.2386353  72.0967069
  64.4398010  20.9422526  72.8044266  64.4946620  19.9896362  72.7286742
  63.6289212  21.0981965  73.2885564  67.9764582  20.0241410  79.3949539
  68.3313970  20.2512883  80.2544004  68.6236713  20.3559787  78.7726794
  73.7062319  23.1459846  70.0998868  73.5680217  23.3361442  69.1720057
  73.3498538  23.9079229  70.5566919  73.7331698  25.2136373  75.1110139
  74.1668205  25.1211662  75.9593193  74.4463279  25.1893873  74.4730155
  67.4659593  28.8138467  76.6443240  67.5196616  29.3829403  77.4120956
  66.5974375  28.9840352  76.2797277  60.3457987  18.5156023  78.1267691
  61.0181040  18.3073385  77.4780340  59.5187773  18.3178109  77.6872923
  74.5947248  25.2560074  77.6443025  74.7883138  26.1605884  77.8902299
  74.4947866  24.7967493  78.4781610  66.2483559  15.1417964  80.1433352
  65.6011474  15.8407914  80.0497828  67.0184574  15.5754108  80.5109600
  69.6562357  25.4066816  83.2183905  69.5047863  25.1777368  82.3013989
  69.6467036  26.3637418  83.2315250  66.4247693  22.9798729  78.2030172
  67.3539753  23.1309889  78.0299139  66.0038723  23.0682750  77.3478818
  65.2236025  27.0049394  75.9728709  65.0847111  26.6368178  76.8454647
  64.4350621  27.5197033  75.8012667  66.7741240  26.3830996  73.3617547
  66.4391073  26.3431766  74.2575197  66.2745186  25.7175712  72.8887957
  60.7485484  21.7898626  78.8870128  60.6105282  21.0578865  79.4881667
  61.6590408  21.7007526  78.6054316  69.7100432  23.7287031  63.6354607
  69.0929602  23.0033859  63.5387659  69.2416920  24.4896391  63.2921681
  63.3767785  21.5018586  78.3753808  64.0867403  20.8611778  78.3340426
  63.3337093  21.7531480  79.2979989  71.3654563  28.4385939  81.2960387
  71.3067110  27.7545159  80.6290970  71.7674082  29.1804929  80.8441013
  62.0896719  18.4883803  80.1949447  61.5534076  18.0374542  80.8471044
  61.5013427  18.6229712  79.4519912  71.3671971  26.4025523  79.5274367
  70.4798749  26.0651445  79.6500766  71.9370522  25.6708554  79.7643132
  57.8235840  17.6239811  77.2802442  57.7394029  17.0165481  76.5452852
  57.0018546  18.1148829  77.2811938  67.9959554  16.1093375  72.6472637
  68.4928253  15.3563337  72.3273707  67.2246535  16.1457691  72.0815846
  75.8489311  21.8133740  74.2890928  75.8379187  22.6958456  73.9184861
  74.9806691  21.4605291  74.0945465  67.3571808  30.9613809  78.6493769
  68.0699780  31.5961274  78.5769670  66.8661836  31.0577675  77.8333770
  69.0789334  24.8665062  70.2211060  68.1445613  24.9866524  70.0515765
  69.2566003  23.9637529  69.9571070  72.4661886  20.7082381  70.7561094
  72.9322338  21.5410373  70.6821397  72.9169386  20.2427363  71.4606353
  62.4083721  28.7108253  79.4699339  63.1093181  29.3444736  79.6228734
  61.9378836  29.0522984  78.7094979  70.5338117  27.0526202  67.7547246
  70.8097961  26.9382797  68.6641120  69.6642616  26.6543687  67.7159419
  70.4378549  13.0762968  74.7951996  69.5241628  13.3067195  74.9634203
  70.8671650  13.1601412  75.6466028  70.2085007  21.2652860  77.2951890
  69.5556457  21.5128768  76.6404342  70.5865387  20.4516998  76.9614367
  66.2572580  22.0072671  83.7817927  65.5813217  21.9066801  84.4520302
  67.0800214  21.8511885  84.2453924  59.9759856  15.6614748  78.6197428
  60.0401183  16.5229579  78.2074825  59.9126976  15.0488750  77.8869786
  59.4512129  17.7337881  82.2670462  60.0784168  17.3514958  82.8807986
  58.5940048  17.5152083  82.6326154  69.8506237  28.1400856  83.8724197
  70.3946141  28.7530814  83.3779152  69.2693082  28.6980435  84.3891210
  70.1998659  29.0630594  76.6318775  69.2528994  28.9435945  76.5597102
  70.5481432  28.1753092  76.7145036  62.5598232  14.9524733  80.4557017
  63.0832634  15.1987030  81.2183326  62.3410565  15.7844768  80.0360154
  67.2045092  28.8583311  72.8323127  67.0570054  27.9300018  73.0130697
  68.0298585  28.8803401  72.3480203  70.8079214  29.6811869  73.9188000
  71.7325761  29.4754731  73.7812451  70.6394517  29.4328270  74.8277342
  63.7650777  15.8938428  78.1406687  63.4247597  15.0946241  78.5427367
  63.0589783  16.1940139  77.5683521  64.4167249  12.9787741  76.5934011
  65.2393318  12.5048219  76.4712901  64.6605312  13.7578224  77.0932697
  67.2006606  16.7121148  67.8255245  67.4170221  17.5945786  67.5244073
  66.7200673  16.3207362  67.0960887  65.6528341  17.0946750  76.4960006
  65.3946119  18.0163820  76.4944337  65.1213382  16.6977184  77.1860470
  70.5974530  30.1997537  69.2750091  70.7711408  29.6343959  68.5223944
  71.0903421  30.9998432  69.0929581  56.4151490  22.2112206  77.3413650
  55.8704958  22.9872014  77.4733925  57.2930840  22.5583010  77.1832772
  66.0730297  13.2278700  72.8561169  66.0951994  13.2918033  71.9013148
  66.4898356  12.3883209  73.0501675  76.4513921  22.9633960  70.8940391
  76.8945067  22.2141285  70.4959514  75.5740431  22.9544096  70.5114123
  71.5849702  29.5164301  66.3746990  72.2800607  30.1370994  66.5934304
  71.9272853  28.6659652  66.6499368  57.2017512  21.3382102  80.2343807
  56.4599248  21.4864737  80.8208438  56.8810256  21.5990368  79.3710557
  73.4841126  26.9664007  67.9034321  74.0092450  27.3051279  67.1783641
  73.3963478  26.0311022  67.7197455  65.1461174  30.8798080  80.0324197
  65.4548301  30.6347227  80.9046897  65.9436656  31.0844719  79.5443067
  62.6880186  17.0555787  83.9284381  62.7368341  17.9317910  83.5462151
  63.2302700  16.5133180  83.3556025  73.1735032  27.5996910  83.2085519
  72.3830575  27.5821049  82.6690018  72.9368386  28.1385204  83.9634555
  73.2932907  24.4489377  80.5218247  73.3430912  24.2839384  81.4633770
  73.1846830  23.5816636  80.1316128  70.5836669  20.4320305  81.8377554
  71.4846532  20.2926770  81.5461552  70.6584644  20.5974759  82.7775731
  64.9179474  17.8087159  80.6830740  64.0482784  18.1020725  80.4113329
  65.1538955  18.3927604  81.4038004  74.7951104  26.8686318  80.7660269
  74.5035912  27.2316299  81.6023730  74.1823235  26.1553326  80.5873601
  75.9946786  24.4339198  73.2862839  76.8293677  24.8729002  73.4500399
  76.1305915  23.9577851  72.4671085  73.0438292  21.9918933  79.2340327
  73.5192413  22.1846579  78.4259178  72.1203857  22.0478119  78.9883710
  67.6218508  14.0266776  78.1996160  68.1400452  14.7627803  77.8742649
  67.2673641  14.3330770  79.0342920  67.8731102  10.4467059  73.7197057
  68.1532856   9.7790248  74.3457484  68.6581709  10.6396154  73.2071721
  71.7439961  18.8684693  77.4668632  72.6957384  18.9682791  77.4880856
  71.5743411  18.0762961  77.9766717  69.7654340  15.9540276  77.6528033
  69.1704272  16.2345289  76.9574522  69.4804037  16.4434177  78.4244774
  68.8961831  29.9063203  66.4130666  69.8292504  29.8408765  66.6163541
  68.8085044  30.7419470  65.9545198  71.5249847  29.2229073  63.3734613
  71.4463479  28.8888937  64.2670371  72.3459514  29.7150841  63.3726086
  74.2228039  22.0890813  76.5810932  74.1904359  21.1506813  76.7670616
  74.8328662  22.1674849  75.8476757  74.3722527  18.8801856  76.6269215
  73.8561576  18.0960313  76.4399144  75.2562476  18.5520573  76.7915734
  72.0333254  12.6242872  72.5865028  71.8358075  12.3157960  73.4708360
  72.6432960  13.3504510  72.7162958  80.0404588  23.1506819  75.7216969
  80.7707977  22.8892108  76.2824672  79.4311534  22.4135541  75.7619037
  78.1219886  21.2914682  76.3191420  77.3953049  21.1570647  75.7107911
  77.7067172  21.5991511  77.1248138  65.9450062  25.0104612  84.0838793
  66.8653071  25.1883211  84.2778839  65.9099645  24.0660657  83.9318492
  65.8616352  13.4273732  68.7137262  65.0517081  13.0820817  69.0892508
  66.5500769  13.1181275  69.3024874  67.7906901  12.5051778  70.3361559
  68.3437939  12.9247232  70.9951582  68.0276987  11.5787527  70.3784515
  63.8140000  18.4938852  86.1164323  63.7136727  19.4433209  86.0476414
  63.5961542  18.1657091  85.2440393  71.1685708  14.6152304  69.8440223
  70.5884377  15.2737108  69.4618276  70.9021640  13.7929648  69.4327641
  69.6189274  14.0157361  72.0461544  70.1189052  14.1273896  71.2375862
  70.2624882  13.7118414  72.6862352  63.6771270  21.9235991  84.9329385
  63.1938352  22.7236351  85.1393274  63.7632209  21.9343936  83.9796829
  60.1943989  24.3841642  79.5368616  61.0136878  24.8785720  79.5603453
  60.4680797  23.4673610  79.5086184  69.9510586  16.7752394  68.8996572
  69.0636441  17.0602045  68.6816766  70.3664575  16.6146157  68.0523848
  73.3025122  16.7998915  72.6150911  74.0785512  17.2895367  72.8875528
  72.5773256  17.2256969  73.0722780  75.7397680  17.5126534  73.6724851
  76.3342171  17.2722270  72.9618160  75.8124264  16.7933665  74.2998388
  69.0953799  26.5397069  62.9944592  69.7989649  26.7447071  63.6102247
  68.3716448  27.1073831  63.2593675  69.9251609  22.2906930  69.1146862
  69.8686811  22.7475481  68.2754494  70.4779952  21.5297615  68.9369704
  73.7356415  18.0796662  69.9396981  73.4793350  17.6793297  70.7705189
  73.1109283  18.7940456  69.8147120  78.0468753  20.8192735  72.4468273
  77.4868311  20.8885924  73.2199835  77.4412257  20.6433720  71.7267769
  71.0040497  26.9779598  65.0443052  71.8386100  26.5460796  64.8620526
  70.8424839  26.8061612  65.9719946  70.6586389  23.4811711  66.4099391
  70.6035193  23.3155983  65.4687835  70.0332444  24.1887744  66.5661581
  55.4478904  18.7179776  80.2360813  56.0937767  18.2078730  80.7248038
  55.2396055  19.4548457  80.8104238  67.9732296  25.7860623  85.7352954
  68.8423456  25.9601275  85.3739589  67.4939047  26.6055040  85.6128683
  63.9682514  12.9819820  65.9884709  63.9561184  13.9261660  66.1452980
  64.8605936  12.7989966  65.6944170  67.7834634   9.5762597  70.2430646
  67.0167029   9.0221083  70.3887328  68.1945339   9.6484466  71.1044798
  59.7876395  15.8647393  84.3335827  60.6507856  15.5084197  84.5439152
  59.2141805  15.5261287  85.0211232  82.1099888  28.8697510  77.5779023
  81.7783212  29.7392921  77.3540238  81.5145501  28.5533794  78.2573054
  75.8456074  32.6093077  65.3109106  76.0130476  33.4773314  65.6779577
  75.6553243  32.7720359  64.3870395  76.0769417  35.0082242  82.6007271
  75.3002751  35.5676162  82.5910135  76.7159980  35.4939025  83.1222141
  83.8690197  31.7909035  76.4350247  83.2264578  32.0841568  75.7890042
  83.3645126  31.6761955  77.2403444  79.3101644  32.5573811  79.7912130
  79.0662576  33.3115871  79.2546406  79.5861575  32.9359158  80.6259377
  78.8666336  31.7130244  75.3725968  78.0050815  32.0111497  75.6642705
  78.8928770  31.9300643  74.4407000  73.0677153  34.9707343  82.9640548
  72.4375813  35.6523624  83.1975945  72.9613241  34.8590425  82.0193686
  90.4691928  38.3223127  72.9896724  89.7155636  37.7530525  72.8340729
  90.6039469  38.2885792  73.9367359  72.3457896  29.2728109  85.3265799
  71.9524841  28.7194308  86.0013443  73.1624036  29.5838688  85.7172316
  75.2625856  30.6885988  82.9186055  76.0035570  31.2893141  82.8390518
  75.4943779  29.9463626  82.3604098  77.4859032  43.8160096  82.7951786
  77.0422886  43.0296474  82.4772690  78.1476246  44.0039246  82.1295677
  79.2083019  26.7167091  77.1950337  78.8647289  27.6068733  77.1189448
  79.5761982  26.5268749  76.3319922  76.7580413  31.5525403  70.7608011
  75.9022010  31.1632254  70.5813649  77.1707365  31.6317364  69.9007796
  78.2879560  29.0871746  75.1599570  77.7844355  29.0501882  74.3467376
  78.5810167  29.9964489  75.2196227  74.5322446  29.1710476  74.1665752
  75.3975442  28.9753285  73.8071642  74.5999955  28.9420828  75.0935109
  72.1384765  31.4012684  71.5382119  72.7128517  31.1787866  70.8055312
  72.7255747  31.4701379  72.2910720  74.4407432  28.2753933  70.2657188
  73.7871845  27.9602950  69.6413803  74.3987907  27.6529673  70.9917011
  81.0070685  25.9760650  72.2968075  81.3129562  25.1158014  72.0093990
  81.7323290  26.5678271  72.0967069  78.8158336  35.3533328  79.3949539
  79.1707724  35.5804801  80.2544004  79.4630468  35.6851705  78.7726794
  72.7098200  32.4609859  76.1795880  73.3497579  32.3198618  75.4818843
  71.8775730  32.1744372  75.8034482  71.1851741  33.8447941  78.1267691
  71.8574795  33.6365303  77.4780340  70.3581528  33.6470027  77.6872923
  85.4341003  40.5851991  77.6443025  85.6276893  41.4897802  77.8902299
  85.3341621  40.1259410  78.4781610  77.0877313  30.4709882  80.1433352
  76.4405228  31.1699832  80.0497828  77.8578329  30.9046026  80.5109600
  72.9290473  33.8175721  80.1949447  72.3927830  33.3666460  80.8471044
  72.3407182  33.9521630  79.4519912  72.3392732  33.2764373  62.7575911
  71.4622198  33.1553173  62.3938158  72.8150485  32.4850451  62.5054800
  68.6629594  32.9531729  77.2802442  68.5787783  32.3457398  76.5452852
  67.8412301  33.4440747  77.2811938  78.8353308  31.4385292  72.6472637
  79.3322008  30.6855255  72.3273707  78.0640290  31.4749609  72.0815846
  81.2772303  28.4054886  74.7951996  80.3635383  28.6359113  74.9634203
  81.7065405  28.4893330  75.6466028  70.8153611  30.9906666  78.6197428
  70.8794937  31.8521497  78.2074825  70.7520731  30.3780668  77.8869786
  70.2905883  33.0629799  82.2670462  70.9177922  32.6806876  82.8807986
  69.4333802  32.8444001  82.6326154  80.6899992  43.4692774  83.8724197
  81.2339896  44.0822732  83.3779152  80.1086837  44.0272352  84.3891210
  70.5965673  32.9462224  74.1816365  69.8752259  33.5598192  74.0423839
  71.3858929  33.4819989  74.1033011  73.3991986  30.2816651  80.4557017
  73.9226388  30.5278947  81.2183326  73.1804320  31.1136686  80.0360154
  74.6044532  31.2230346  78.1406687  74.2641352  30.4238159  78.5427367
  73.8983538  31.5232057  77.5683521  75.2561003  28.3079658  76.5934011
  76.0787073  27.8340137  76.4712901  75.4999067  29.0870142  77.0932697
  73.8969238  31.3367917  66.8896912  74.6177600  31.7149170  66.3860629
  73.2734542  32.0556794  66.9931890  72.7799582  34.9998779  74.4025989
  72.6344163  35.3139082  75.2950271  72.3024786  35.6183679  73.8496888
  74.6395965  31.9901327  74.4506879  74.6257534  31.0942420  74.1139177
  75.3568393  31.9971991  75.0845165  76.4922096  32.4238667  76.4960006
  76.2339874  33.3455738  76.4944337  75.9607136  32.0269102  77.1860470
  74.0432861  30.8715707  69.7194449  74.1648772  29.9432353  69.9185336
  73.7534903  30.8854393  68.8072764  76.9124051  28.5570618  72.8561169
  76.9345748  28.6209951  71.9013148  77.3292110  27.7175126  73.0501675
  73.5273940  32.3847705  83.9284381  73.5762096  33.2609827  83.5462151
  74.0696455  31.8425098  83.3556025  84.0128786  42.9288828  83.2085519
  83.2224330  42.9112967  82.6690018  83.7762141  43.4677122  83.9634555
  84.1326661  39.7781294  80.5218247  84.1824666  39.6131302  81.4633770
  84.0240585  38.9108553  80.1316128  81.4230424  35.7612222  81.8377554
  82.3240286  35.6218687  81.5461552  81.4978398  35.9266677  82.7775731
  75.7573229  33.1379077  80.6830740  74.8876538  33.4312643  80.4113329
  75.9932709  33.7219522  81.4038004  85.6344858  42.1978236  80.7660269
  85.3429666  42.5608216  81.6023730  85.0216989  41.4845244  80.5873601
  83.8832046  37.3210850  79.2340327  84.3586168  37.5138497  78.4259178
  82.9597612  37.3770036  78.9883710  78.4612263  29.3558694  78.1996160
  78.9794207  30.0919721  77.8742649  78.1067396  29.6622687  79.0342920
  78.7124857  25.7758977  73.7197057  78.9926611  25.1082166  74.3457484
  79.4975464  25.9688072  73.2071721  82.5833715  34.1976611  77.4668632
  83.5351138  34.2974708  77.4880856  82.4137166  33.4054879  77.9766717
  80.6048095  31.2832194  77.6528033  80.0098027  31.5637206  76.9574522
  80.3197791  31.7726095  78.4244774  85.2116282  34.2093774  76.6269215
  84.6955330  33.4252230  76.4399144  86.0956230  33.8812490  76.7915734
  82.8727008  27.9534789  72.5865028  82.6751830  27.6449877  73.4708360
  83.4826714  28.6796428  72.7162958  90.8798343  38.4798737  75.7216969
  91.6101731  38.2184025  76.2824672  90.2705288  37.7427459  75.7619037
  88.9613640  36.6206600  76.3191420  88.2346804  36.4862565  75.7107911
  88.5460927  36.9283428  77.1248138  76.7010107  28.7565649  68.7137262
  75.8910835  28.4112734  69.0892508  77.3894524  28.4473193  69.3024874
  78.6300655  27.8343696  70.3361559  79.1831694  28.2539150  70.9951582
  78.8670741  26.9079444  70.3784515  74.6533754  33.8230770  86.1164323
  74.5530481  34.7725127  86.0476414  74.4355296  33.4949009  85.2440393
  73.8546826  31.0715695  62.7005000  74.7165990  31.3970593  62.9600818
  74.0397170  30.2847191  62.1878066  82.0079462  29.9444221  69.8440223
  81.4278131  30.6029025  69.4618276  81.7415395  29.1221566  69.4327641
  80.4583029  29.3449279  72.0461544  80.9582807  29.4565814  71.2375862
  81.1018636  29.0410332  72.6862352  88.8862508  36.1484653  72.4468273
  88.3262066  36.2177842  73.2199835  88.2806011  35.9725637  71.7267769
  66.2872658  34.0471693  80.2360813  66.9331522  33.5370647  80.7248038
  66.0789809  34.7840375  80.8104238  78.8126050  41.1152541  85.7352954
  79.6817210  41.2893193  85.3739589  78.3332802  41.9346958  85.6128683
  74.8076269  28.3111738  65.9884709  74.7954939  29.2553578  66.1452980
  75.6999691  28.1281883  65.6944170  78.6228388  24.9054514  70.2430646
  77.8560784  24.3513001  70.3887328  79.0339093  24.9776383  71.1044798
  70.6270149  31.1939310  84.3335827  71.4901611  30.8376115  84.5439152
  70.0535560  30.8553205  85.0211232  90.4718526  52.8241167  75.1398228
  91.1096936  52.7047914  74.4361568  90.3539369  53.7722011  75.1986180
  87.7628015  53.9303446  81.0345959  87.7516656  53.5356245  80.1626462
  87.9248655  53.1969519  81.6279730  88.7194607  58.2975039  66.3771109
  88.0682587  58.8829119  65.9905123  89.5138970  58.8281234  66.4366146
  90.1969872  55.9865471  66.9140093  89.5615705  56.0600097  67.6260998
  89.8667278  56.5759070  66.2359172  95.4268222  50.4867854  73.1184415
  96.1593394  49.9167070  73.3522244  94.6707577  50.0989454  73.5590920
  92.9493642  44.1989428  77.5779023  92.6176967  45.0684839  77.3540238
  92.3539255  43.8825712  78.2573054  89.4425162  56.4001974  76.9774936
  89.1425885  57.3027013  76.8690743  89.0976221  56.1334157  77.8296089
  92.8422305  48.9184514  74.6572374  91.9339183  48.8499922  74.3631135
  92.7909901  49.3956459  75.4854199  86.9163171  50.3374160  82.6007271
  86.1396505  50.8968080  82.5910135  87.5553734  50.8230943  83.1222141
  94.7083952  47.1200952  76.4350247  94.0658332  47.4133486  75.7890042
  94.2038880  47.0053873  77.2403444  92.3624115  50.8664126  67.1236107
  93.2741972  51.0991512  66.9483804  91.8533763  51.4501170  66.5611185
  85.1709544  53.1459613  82.1625238  85.9124228  53.6844657  81.8860061
  84.4646529  53.7725902  82.3196790  90.6464883  55.2888753  80.7597399
  91.0548239  54.8471164  80.0152032  89.9242145  54.7141381  81.0131592
  90.9693698  55.8489944  74.5149688  90.3402560  56.0135658  73.8125756
  90.5819360  56.2631554  75.2860652  94.8482930  56.7844382  71.8694052
  94.1633968  57.1643283  71.3191085  94.9326779  57.3939709  72.6026000
  90.1495399  47.8865729  79.7912130  89.9056330  48.6407789  79.2546406
  90.4255329  48.2651076  80.6259377  92.1033861  54.4304341  78.4689395
  92.3150757  55.0736101  77.7923777  92.0563610  53.5966657  78.0011326
  89.7060090  47.0422162  75.3725968  88.8444569  47.3403415  75.6642705
  89.7322525  47.2592560  74.4407000  83.9070907  50.2999261  82.9640548
  83.2769568  50.9815542  83.1975945  83.8006995  50.1882343  82.0193686
  93.2179689  57.3076296  76.6411753  94.0397133  56.9056484  76.3594434
  93.2142092  57.2044530  77.5927869 101.3085682  53.6515045  72.9896724
 100.5549391  53.0822443  72.8340729 101.4433224  53.6177709  73.9367359
  83.1851650  44.6020027  85.3265799  82.7918596  44.0486225  86.0013443
  84.0017790  44.9130605  85.7172316  86.1019611  46.0177906  82.9186055
  86.8429324  46.6185059  82.8390518  86.3337534  45.2755544  82.3604098
  88.3252787  59.1452014  82.7951786  87.8816641  58.3588392  82.4772690
  88.9870000  59.3331164  82.1295677  90.4234025  59.4254814  80.8233187
  90.4052500  60.2463695  80.3313456  91.3453945  59.3008889  81.0483328
  86.8807079  56.9398943  81.6656695  87.4135416  56.1787231  81.4356003
  86.3521160  56.6472595  82.4080850  90.0476774  42.0459009  77.1950337
  89.7041043  42.9360651  77.1189448  90.4155737  41.8560667  76.3319922
  89.1273314  44.4163664  75.1599570  88.6238110  44.3793799  74.3467376
  89.4203921  45.3256407  75.2196227  94.9861331  54.7899975  67.6375946
  94.2090774  54.4511134  67.1931108  95.6652812  54.7952598  66.9630911
  93.2252638  54.2633956  74.2942554  92.5676312  54.9533217  74.3822682
  94.0293037  54.6530388  74.6376540  92.0358096  52.6178329  72.3446495
  92.5489978  53.2508321  72.8468205  92.6859320  52.0179524  71.9789855
  89.2980471  62.5962653  65.1007167  88.6242169  62.8994350  65.7092124
  89.6846293  63.3991733  64.7512624  92.8019893  57.5984330  70.4725638
  92.3482220  56.7575240  70.5290829  92.1713859  58.2345728  70.8100418
  91.7452812  48.5276316  71.7026306  91.0075569  48.0153702  72.0336548
  91.9979586  48.0876698  70.8909582  91.2452832  59.4360827  71.4075456
  91.5375806  59.9965884  70.6887822  91.7551453  59.7289388  72.1628615
  91.8464440  41.3052568  72.2968075  92.1523316  40.4449932  72.0093990
  92.5717044  41.8970188  72.0967069  89.6552091  50.6825245  79.3949539
  90.0101479  50.9096719  80.2544004  90.3024222  51.0143622  78.7726794
  95.3849828  53.8043681  70.0998868  95.2467726  53.9945277  69.1720057
  95.0286047  54.5663064  70.5566919  95.4119207  55.8720208  75.1110139
  95.8455714  55.7795497  75.9593193  96.1250788  55.8477709  74.4730155
  89.1447102  59.4722302  76.6443240  89.1984125  60.0413239  77.4120956
  88.2761884  59.6424187  76.2797277  96.2734757  55.9143909  77.6443025
  96.4670647  56.8189719  77.8902299  96.1735375  55.4551328  78.4781610
  87.9271068  45.8001800  80.1433352  87.2798983  46.4991749  80.0497828
  88.6972083  46.2337943  80.5109600  91.3349866  56.0650652  83.2183905
  91.1835372  55.8361203  82.3013989  91.3254545  57.0221253  83.2315250
  88.1035202  53.6382564  78.2030172  89.0327262  53.7893724  78.0299139
  87.6826232  53.7266585  77.3478818  91.3887941  54.3870866  63.6354607
  90.7717111  53.6617694  63.5387659  90.9204429  55.1480226  63.2921681
  93.0442072  59.0969774  81.2960387  92.9854619  58.4128994  80.6290970
  93.4461591  59.8388764  80.8441013  93.0459480  57.0609358  79.5274367
  92.1586258  56.7235280  79.6500766  93.6158031  56.3292389  79.7643132
  97.5276820  52.4717576  74.2890928  97.5166696  53.3542291  73.9184861
  96.6594200  52.1189126  74.0945465  89.0359317  61.6197645  78.6493769
  89.7487289  62.2545109  78.5769670  88.5449345  61.7161511  77.8333770
  90.7576843  55.5248897  70.2211060  89.8233122  55.6450360  70.0515765
  90.9353512  54.6221364  69.9571070  94.1449395  51.3666217  70.7561094
  94.6109847  52.1994208  70.6821397  94.5956895  50.9011198  71.4606353
  92.2125626  57.7110038  67.7547246  92.4885470  57.5966632  68.6641120
  91.3430125  57.3127523  67.7159419  92.1166058  43.7346804  74.7951996
  91.2029137  43.9651030  74.9634203  92.5459159  43.8185248  75.6466028
  91.8872516  51.9236696  77.2951890  91.2343966  52.1712603  76.6404342
  92.2652896  51.1100834  76.9614367  88.8479690  61.9596389  71.3980060
  89.0302084  61.1418045  71.8607812  89.6712676  62.1764081  70.9604950
  89.1821855  60.8864574  68.6595109  89.7109622  60.3757028  68.0465271
  89.4450075  60.5707104  69.5240642  87.9360089  52.6656507  83.7817927
  87.2600726  52.5650636  84.4520302  88.7587723  52.5095720  84.2453924
  81.1299638  48.3921716  82.2670462  81.7571677  48.0098794  82.8807986
  80.2727557  48.1735918  82.6326154  91.5293746  58.7984692  83.8724197
  92.0733650  59.4114650  83.3779152  90.9480591  59.3564270  84.3891210
  89.8151259  61.9205410  75.0039225  89.6902399  61.1195149  74.4950170
  90.4730350  62.4151603  74.5153195  91.8786168  59.7214430  76.6318775
  90.9316503  59.6019781  76.5597102  92.2268941  58.8336928  76.7145036
  84.2385741  45.6108569  80.4557017  84.7620143  45.8570865  81.2183326
  84.0198074  46.4428603  80.0360154  88.8832601  59.5167146  72.8323127
  88.7357563  58.5883853  73.0130697  89.7086094  59.5387237  72.3480203
  92.4866723  60.3395705  73.9188000  93.4113270  60.1338566  73.7812451
  92.3182026  60.0912106  74.8277342  92.2762039  60.8581372  69.2750091
  92.4498916  60.2927795  68.5223944  92.7690930  61.6582267  69.0929581
  98.1301430  53.6217795  70.8940391  98.5732576  52.8725120  70.4959514
  97.2527940  53.6127931  70.5114123  93.2637211  60.1748136  66.3746990
  93.9588116  60.7954829  66.5934304  93.6060362  59.3243488  66.6499368
  95.1628635  57.6247842  67.9034321  95.6879959  57.9635115  67.1783641
  95.0750987  56.6894857  67.7197455  86.8469295  63.6919825  72.2629574
  86.4074286  63.1996204  72.9562430  87.5977412  63.1492793  72.0221649
  84.3667695  47.7139622  83.9284381  84.4155850  48.5901745  83.5462151
  84.9090209  47.1717015  83.3556025  94.8522541  58.2580746  83.2085519
  94.0618084  58.2404884  82.6690018  94.6155895  58.7969039  83.9634555
  94.9720416  55.1073212  80.5218247  95.0218421  54.9423219  81.4633770
  94.8634339  54.2400471  80.1316128  92.2624178  51.0904140  81.8377554
  93.1634041  50.9510605  81.5461552  92.3372153  51.2558595  82.7775731
  86.5966983  48.4670995  80.6830740  85.7270293  48.7604561  80.4113329
  86.8326464  49.0511440  81.4038004  96.4738613  57.5270153  80.7660269
  96.1823421  57.8900134  81.6023730  95.8610744  56.8137162  80.5873601
  97.6734295  55.0923033  73.2862839  98.5081186  55.5312837  73.4500399
  97.8093424  54.6161686  72.4671085  94.7225801  52.6502768  79.2340327
  95.1979922  52.8430414  78.4259178  93.7991366  52.7061954  78.9883710
  89.3006017  44.6850612  78.1996160  89.8187961  45.4211639  77.8742649
  88.9461150  44.9914605  79.0342920  89.5518611  41.1050894  73.7197057
  89.8320365  40.4374083  74.3457484  90.3369218  41.2979990  73.2071721
  93.4227470  49.5268528  77.4668632  94.3744893  49.6266626  77.4880856
  93.2530920  48.7346797  77.9766717  91.4441849  46.6124111  77.6528033
  90.8491781  46.8929124  76.9574522  91.1591546  47.1018012  78.4244774
  90.5749340  60.5647038  66.4130666  91.5080013  60.4992600  66.6163541
  90.4872553  61.4003305  65.9545198  93.2037356  59.8812909  63.3734613
  93.1250988  59.5472772  64.2670371  94.0247023  60.3734677  63.3726086
  95.9015548  52.7474648  76.5810932  95.8691868  51.8090649  76.7670616
  96.5116171  52.8258685  75.8476757  96.0510036  49.5385691  76.6269215
  95.5349085  48.7544148  76.4399144  96.9349985  49.2104408  76.7915734
  93.7120763  43.2826707  72.5865028  93.5145584  42.9741795  73.4708360
  94.3220469  44.0088346  72.7162958 101.7192097  53.8090655  75.7216969
 102.4495486  53.5475943  76.2824672 101.1099043  53.0719377  75.7619037
  99.8007395  51.9498517  76.3191420  99.0740558  51.8154482  75.7107911
  99.3854681  52.2575346  77.1248138  87.6237571  55.6688447  84.0838793
  88.5440580  55.8467046  84.2778839  87.5887154  54.7244492  83.9318492
  85.4927509  49.1522687  86.1164323  85.3924236  50.1017044  86.0476414
  85.2749051  48.8240926  85.2440393  85.3558779  52.5819826  84.9329385
  84.8725861  53.3820186  85.1393274  85.4419718  52.5927771  83.9796829
  94.9812631  47.4582750  72.6150911  95.7573021  47.9479203  72.8875528
  94.2560765  47.8840805  73.0722780  97.4185189  48.1710370  73.6724851
  98.0129680  47.9306105  72.9618160  97.4911773  47.4517500  74.2998388
  90.7741308  57.1980904  62.9944592  91.4777158  57.4030906  63.6102247
  90.0503957  57.7657666  63.2593675  91.6039118  52.9490765  69.1146862
  91.5474320  53.4059317  68.2754494  92.1567461  52.1881450  68.9369704
  95.4143924  48.7380497  69.9396981  95.1580859  48.3377133  70.7705189
  94.7896792  49.4524291  69.8147120  99.7256262  51.4776570  72.4468273
  99.1655820  51.5469760  73.2199835  99.1199766  51.3017555  71.7267769
  92.6828006  57.6363433  65.0443052  93.5173609  57.2044632  64.8620526
  92.5212348  57.4645447  65.9719946  92.3373898  54.1395547  66.4099391
  92.2822702  53.9739818  65.4687835  91.7119953  54.8471579  66.5661581
  89.6519805  56.4444458  85.7352954  90.5210965  56.6185111  85.3739589
  89.1726556  57.2638875  85.6128683  89.4622143  40.2346432  70.2430646
  88.6954538  39.6804919  70.3887328  89.8732848  40.3068301  71.1044798
  81.4663904  46.5231228  84.3335827  82.3295365  46.1668033  84.5439152
  80.8929314  46.1845123  85.0211232 101.3112281  68.1533084  75.1398228
 101.9490691  68.0339832  74.4361568 101.1933124  69.1013928  75.1986180
  98.1201987  68.1060512  75.0759753  97.7820498  67.9901577  74.1880288
  98.9891755  67.7051678  75.0560759  93.9788803  69.9595989  71.0656644
  93.4153668  69.8685926  70.2972932  93.8641198  69.1395893  71.5459136
  98.6021770  69.2595364  81.0345959  98.5910411  68.8648162  80.1626462
  98.7642409  68.5261437  81.6279730  91.5253235  71.4547180  73.9040864
  92.3174526  71.1138005  73.4887164  91.7649885  71.5642155  74.8243018
  99.5588361  73.6266957  66.3771109  98.9076341  74.2121037  65.9905123
 100.3532724  74.1573151  66.4366146  93.4843988  70.7156094  66.7758243
  94.2574864  70.1685081  66.6371119  93.8369387  71.5800343  66.9872705
  95.3229031  72.0432476  79.9825143  95.0318897  72.9478107  79.8671809
  95.9586015  72.0849004  80.6969212  96.2485238  69.4209324  76.5726502
  96.8448810  69.1965347  75.8583465  96.3060209  68.6794070  77.1751950
  95.8210266  66.8748760  64.4076693  96.0735787  66.3530281  63.6460156
  94.8834825  66.7114905  64.5103377 100.8653549  65.8784538  72.2151436
 101.6516638  65.4603961  71.8641853 101.1292253  66.7830630  72.3833085
 101.0363626  71.3157388  66.9140093 100.4009459  71.3892015  67.6260998
 100.7061033  71.9050987  66.2359172 106.2661976  65.8159771  73.1184415
 106.9987148  65.2458988  73.3522244 105.5101332  65.4281372  73.5590920
  95.5406555  68.7776866  66.6101068  95.4242813  68.1021769  67.2782152
  95.6508815  68.2909240  65.7933221  97.8838096  68.2387013  70.3147757
  97.5196303  67.7117634  71.0260679  98.7405212  67.8485482  70.1414243
 103.7887397  59.5281345  77.5779023 103.4570721  60.3976756  77.3540238
 103.1933010  59.2117629  78.2573054  97.5243583  63.2676913  65.3109106
  97.6917985  64.1357149  65.6779577  97.3340752  63.4304194  64.3870395
 100.2818916  71.7293891  76.9774936  99.9819639  72.6318930  76.8690743
  99.9369976  71.4626075  77.8296089  93.7331398  68.1807688  73.0111641
  92.8081894  68.0483902  73.2189332  93.9815811  68.9601908  73.5081583
 103.6816060  64.2476432  74.6572374 102.7732937  64.1791840  74.3631135
 103.6303656  64.7248377  75.4854199  97.5032804  65.7234570  66.2955773
  97.3832429  66.1691621  67.1341253  96.8085392  66.0719888  65.7369311
  91.0940209  67.8240962  73.8455430  91.2232590  68.0775441  74.7594841
  90.4137660  68.4168670  73.5260085  95.2639696  78.4938212  69.9445904
  95.1863726  79.4446037  70.0234384  94.6601340  78.1484084  70.6020830
  97.7556926  65.6666077  82.6007271  96.9790260  66.2259997  82.5910135
  98.3947489  66.1522860  83.1222141 105.5477706  62.4492870  76.4350247
 104.9052087  62.7425403  75.7890042 105.0432635  62.3345790  77.2403444
 103.2017870  66.1956043  67.1236107 104.1135726  66.4283430  66.9483804
 102.6927517  66.7793087  66.5611185  96.0103298  68.4751531  82.1625238
  96.7517982  69.0136575  81.8860061  95.3040283  69.1017819  82.3196790
 101.4858638  70.6180671  80.7597399 101.8941994  70.1763082  80.0152032
 100.7635899  70.0433299  81.0131592  97.8389708  65.5553278  78.1330956
  98.6850903  65.9792691  78.2765605  97.7788345  64.8986902  78.8269519
 101.8087452  71.1781862  74.5149688 101.1796315  71.3427576  73.8125756
 101.4213114  71.5923471  75.2860652 105.6876684  72.1136300  71.8694052
 105.0027722  72.4935201  71.3191085 105.7720534  72.7231626  72.6026000
 100.9889153  63.2157646  79.7912130 100.7450085  63.9699707  79.2546406
 101.2649084  63.5942994  80.6259377 102.9427616  69.7596259  78.4689395
 103.1544511  70.4028018  77.7923777 102.8957364  68.9258575  78.0011326
 100.5453845  62.3714079  75.3725968  99.6838324  62.6695333  75.6642705
 100.5716279  62.5884478  74.4407000  97.3615414  70.9156270  71.7799773
  97.8253760  71.1943973  70.9904396  97.0972212  70.0139714  71.5972864
  94.2539495  70.4627751  74.7179537  94.8240852  70.8915020  74.0797021
  94.8447607  70.1810336  75.4163722  96.2984300  67.0379422  68.5889338
  97.0008344  67.4900466  69.0563265  95.9664929  66.3963241  69.2169232
  94.7464662  65.6291179  82.9640548  94.1163322  66.3107460  83.1975945
  94.6400750  65.5174260  82.0193686  90.0409634  65.2962975  73.8906472
  89.2508688  65.5520503  73.4146583  90.5320882  66.1111313  73.9958513
 104.0573444  72.6368214  76.6411753 104.8790887  72.2348401  76.3594434
 104.0535847  72.5336448  77.5927869  91.9924380  65.6607554  70.8489949
  91.1955543  65.7726248  71.3673444  91.7649972  65.9994206  69.9830839
  97.8230047  72.1852257  78.7972463  97.8874480  72.6472665  79.6330635
  97.1140971  71.5549622  78.9254773 112.1479437  68.9806962  72.9896724
 111.3943145  68.4114361  72.8340729 112.2826978  68.9469627  73.9367359
  97.5378065  73.8520365  68.6651444  97.4023740  74.6971900  69.0936291
  98.0787877  74.0539642  67.9017377  94.0245404  59.9311945  85.3265799
  93.6312350  59.3778143  86.0013443  94.8411545  60.2422523  85.7172316
  90.9907462  71.3695803  69.2379369  91.5031983  72.1639053  69.3884933
  91.6430175  70.6722093  69.1712970  92.8002347  74.4861559  71.3202122
  92.9768975  75.4079524  71.1323106  93.5959180  74.1719978  71.7496502
  96.9413365  61.3469824  82.9186055  97.6823079  61.9476977  82.8390518
  97.1731288  60.6047461  82.3604098  92.0854703  66.5326191  81.1964285
  91.9708219  65.6311448  81.4971384  91.2299221  66.7789888  80.8449102
  99.1646541  74.4743931  82.7951786  98.7210395  73.6880310  82.4772690
  99.8263755  74.6623082  82.1295677  93.9233662  76.0039733  77.3212464
  94.4741088  75.8756796  76.5489458  93.0845138  76.3034622  76.9707357
 101.2627779  74.7546731  80.8233187 101.2446255  75.5755612  80.3313456
 102.1847699  74.6300806  81.0483328  97.7200833  72.2690861  81.6656695
  98.2529170  71.5079149  81.4356003  97.1914915  71.9764512  82.4080850
 100.8870528  57.3750927  77.1950337 100.5434798  58.2652568  77.1189448
 101.2549491  57.1852584  76.3319922  88.9556379  69.6984457  70.0138939
  89.7931601  70.1081465  69.7972647  89.1334647  68.7583899  69.9839133
 100.8520811  67.3659538  65.7022772 100.3367435  68.1364142  65.9411160
 100.5798120  66.6924674  66.3255834  98.4367922  62.2109239  70.7608011
  97.5809519  61.8216089  70.5813649  98.8494874  62.2901199  69.9007796
  99.9667069  59.7455582  75.1599570  99.4631864  59.7085717  74.3467376
 100.2597676  60.6548325  75.2196227  96.2109955  59.8294312  74.1665752
  97.0762951  59.6337120  73.8071642  96.2787464  59.6004663  75.0935109
 105.8255085  70.1191892  67.6375946 105.0484528  69.7803052  67.1931108
 106.5046566  70.1244516  66.9630911 100.6407114  65.2386630  67.5282553
 100.3357250  65.5532779  68.3792697 101.5937556  65.3168050  67.5709886
  99.0853546  71.3976853  69.1775507  98.5574908  70.6629613  68.8648745
  98.5841049  72.1751530  68.9315476 104.0646392  69.5925874  74.2942554
 103.4070067  70.2825135  74.3822682 104.8686791  69.9822306  74.6376540
  93.8172274  62.0596519  71.5382119  94.3916026  61.8371701  70.8055312
  94.4043256  62.1285214  72.2910720 102.8751851  67.9470246  72.3446495
 103.3883733  68.5800238  72.8468205 103.5253075  67.3471442  71.9789855
  94.1441861  64.0900980  65.5578004  93.3079173  64.4275667  65.8787279
  94.0046631  63.9549960  64.6205141  96.1194941  58.9337768  70.2657188
  95.4659354  58.6186786  69.6413803  96.0775416  58.3113509  70.9917011
  97.2306146  69.2157063  62.1810480  96.3233208  68.9846317  62.3801629
  97.7277178  68.4194683  62.3684462 100.1374225  77.9254571  65.1007167
  99.4635924  78.2286267  65.7092124 100.5240047  78.7283651  64.7512624
  99.3532682  65.4219702  74.5904836  98.4355243  65.6434649  74.4326524
  99.7692825  65.4966012  73.7316543 100.1367730  66.8211118  69.7207516
 100.8839549  67.3332515  69.4114638 100.4059319  66.4995170  70.5811910
  98.4094380  69.3169658  66.7034470  97.5005599  69.0328691  66.8006940
  98.4389464  69.7368737  65.8437777 103.6413647  72.9276248  70.4725638
 103.1875974  72.0867158  70.5290829 103.0107614  73.5637646  70.8100418
 102.5846567  63.8568234  71.7026306 101.8469324  63.3445620  72.0336548
 102.8373340  63.4168615  70.8909582 102.0846586  74.7652744  71.4075456
 102.3769561  75.3257802  70.6887822 102.5945207  75.0581305  72.1628615
 102.6858194  56.6344486  72.2968075 102.9917071  55.7741849  72.0093990
 103.4110799  57.2262106  72.0967069  88.9782550  67.0375172  70.6849673
  88.7806950  66.4444533  69.9600739  88.4229214  66.7327383  71.4025611
  96.9579274  66.9298279  72.8044266  97.0127884  65.9772115  72.7286742
  96.1470476  67.0857718  73.2885564  98.1070468  70.8578402  64.0422549
  97.6689898  70.1414261  63.5828186  98.8480908  71.0854517  63.4807640
  94.8971634  65.5475339  70.5634645  94.0839499  65.8469509  70.9699837
  95.3930628  65.1531027  71.2809127  97.0480212  75.5433096  72.4968909
  97.0056390  75.7693942  71.5677441  97.9642910  75.3096470  72.6454711
 100.4945845  66.0117163  79.3949539 100.8495233  66.2388636  80.2544004
 101.1417977  66.3435540  78.7726794 106.2243582  69.1335599  70.0998868
 106.0861481  69.3237195  69.1720057 105.8679801  69.8954982  70.5566919
  94.3885708  63.1193694  76.1795880  95.0285088  62.9782453  75.4818843
  93.5563239  62.8328208  75.8034482 106.2512962  71.2012126  75.1110139
 106.6849469  71.1087415  75.9593193 106.9644543  71.1769626  74.4730155
  95.1646012  72.4196125  72.2930872  95.9586611  71.9246445  72.0913447
  94.4537705  71.8913988  71.9298578  99.9840857  74.8014220  76.6443240
 100.0377879  75.3705156  77.4120956  99.1155638  74.9716105  76.2797277
  91.4728776  66.5639206  68.3690625  90.5426364  66.5023662  68.5860587
  91.5686248  66.0415159  67.5727266  91.3914325  63.0894019  70.9568866
  91.6521142  64.0039352  70.8478027  92.2131497  62.6218462  71.1065479
  92.8639250  64.5031776  78.1267691  93.5362304  64.2949138  77.4780340
  92.0369037  64.3053862  77.6872923 107.1128512  71.2435827  77.6443025
 107.3064402  72.1481637  77.8902299 107.0129130  70.7843246  78.4781610
  98.7664822  61.1293717  80.1433352  98.1192737  61.8283667  80.0497828
  99.5365838  61.5629861  80.5109600 102.1743620  71.3942569  83.2183905
 102.0229127  71.1653121  82.3013989 102.1648300  72.3513171  83.2315250
  98.9428957  68.9674482  78.2030172  99.8721017  69.1185642  78.0299139
  98.5219987  69.0558503  77.3478818  97.7417288  72.9925147  75.9728709
  97.6028374  72.6243931  76.8454647  96.9531885  73.5072786  75.8012667
  98.3365440  78.0934243  67.3154246  98.5117196  77.6222286  68.1299868
  97.6498228  78.7200009  67.5435506  99.2922504  72.3706749  73.3617547
  98.9572336  72.3307519  74.2575197  98.7926449  71.7051465  72.8887957
  93.2666748  67.7774379  78.8870128  93.1286545  67.0454618  79.4881667
  94.1771671  67.6883279  78.6054316 102.2281695  69.7162784  63.6354607
 101.6110866  68.9909612  63.5387659 101.7598184  70.4772144  63.2921681
  95.8949048  67.4894339  78.3753808  96.6048667  66.8487531  78.3340426
  95.8518356  67.7407233  79.2979989 103.8835827  74.4261692  81.2960387
 103.8248373  73.7420912  80.6290970 104.2855345  75.1680682  80.8441013
  94.6077982  64.4759557  80.1949447  94.0715339  64.0250295  80.8471044
  94.0194691  64.6105465  79.4519912  92.9026526  81.2423606  74.0894106
  93.1423124  81.8742130  74.7673124  92.0595722  80.8911646  74.3759465
  94.0180241  63.9348208  62.7575911  93.1409707  63.8137009  62.3938158
  94.4937994  63.1434286  62.5054800 103.8853234  72.3901276  79.5274367
 102.9980013  72.0527198  79.6500766 104.4551785  71.6584307  79.7643132
  90.3417103  63.6115564  77.2802442  90.2575292  63.0041234  76.5452852
  89.5199810  64.1024583  77.2811938  97.4154388  77.0502728  76.4935610
  97.3424559  77.8557700  77.0054914  96.9731781  77.2494694  75.6683631
  97.2044167  76.2874498  70.0038431  96.4211689  76.8296178  70.0976656
  97.9036912  76.8048478  70.4032673 100.5140817  62.0969128  72.6472637
 101.0109517  61.3439090  72.3273707  99.7427799  62.1333444  72.0815846
 108.3670575  67.8009493  74.2890928 108.3560451  68.6834209  73.9184861
 107.4987954  67.4481044  74.0945465  99.8753071  76.9489562  78.6493769
 100.5881043  77.5837027  78.5769670  99.3843100  77.0453428  77.8333770
 101.5970598  70.8540815  70.2211060 100.6626877  70.9742277  70.0515765
 101.7747266  69.9513282  69.9571070  97.0975786  64.2386511  72.3744321
  96.7273574  63.6857551  73.0625227  97.5934878  63.6344644  71.8219321
 104.9843149  66.6958134  70.7561094 105.4503601  67.5286126  70.6821397
 105.4350650  66.2303116  71.4606353  94.9264985  74.6984006  79.4699339
  95.6274444  75.3320489  79.6228734  94.4560100  75.0398737  78.7094979
 103.0519380  73.0401956  67.7547246 103.3279224  72.9258550  68.6641120
 102.1823879  72.6419440  67.7159419 102.9559812  59.0638721  74.7951996
 102.0422892  59.2942948  74.9634203 103.3852914  59.1477165  75.6466028
 102.7266271  67.2528613  77.2951890 102.0737721  67.5004521  76.6404342
 103.1046650  66.4392751  76.9614367  99.6873444  77.2888306  71.3980060
  99.8695839  76.4709962  71.8607812 100.5106430  77.5055999  70.9604950
 100.0215610  76.2156492  68.6595109 100.5503376  75.7048946  68.0465271
 100.2843829  75.8999022  69.5240642  98.7753844  67.9948424  83.7817927
  98.0994481  67.8942554  84.4520302  99.5981477  67.8387638  84.2453924
  90.5232703  74.2320361  76.4030442  91.1086139  73.4864049  76.5358346
  90.3257541  74.5424318  77.2867106  93.3771358  77.2671608  71.4192884
  92.7081733  77.7517736  70.9356924  93.2384228  77.5140829  72.3336263
  97.5176626  79.3015352  78.0175543  98.0694934  79.4646973  78.7824628
  97.8582820  79.8919790  77.3455568  92.4941120  61.6490502  78.6197428
  92.5582446  62.5105332  78.2074825  92.4308240  61.0364503  77.8869786
  91.9693392  63.7213634  82.2670462  92.5965431  63.3390711  82.8807986
  91.1121311  63.5027836  82.6326154 102.3687501  74.1276609  83.8724197
 102.9127405  74.7406567  83.3779152 101.7874346  74.6856188  84.3891210
  88.7458935  65.5290063  68.1988817  89.0412376  64.6200742  68.1455870
  87.8446971  65.5077803  67.8769819 100.6545014  77.2497327  75.0039225
 100.5296153  76.4487067  74.4950170 101.3124105  77.7443521  74.5153195
  92.2753182  63.6046060  74.1816365  91.5539768  64.2182027  74.0423839
  93.0646438  64.1403825  74.1033011 102.7179922  75.0506347  76.6318775
 101.7710258  74.9311698  76.5597102 103.0662695  74.1628845  76.7145036
  95.0779495  60.9400486  80.4557017  95.6013897  61.1862783  81.2183326
  94.8591829  61.7720521  80.0360154  90.4746777  63.2104161  68.3228142
  90.1459483  62.3301540  68.1403248  90.8286147  63.1551830  69.2104531
  99.7226355  74.8459064  72.8323127  99.5751318  73.9175771  73.0130697
 100.5479849  74.8679154  72.3480203  93.5888600  63.4977131  68.6903619
  93.9284672  64.0263052  67.9682228  94.0360720  63.8357537  69.4662186
 103.3260477  75.6687622  73.9188000 104.2507025  75.4630484  73.7812451
 103.1575781  75.4204023  74.8277342  96.2832041  61.8814181  78.1406687
  95.9428861  61.0821994  78.5427367  95.5771047  62.1815892  77.5683521
  96.9348512  58.9663494  76.5934011  97.7574582  58.4923972  76.4712901
  97.1786576  59.7453978  77.0932697  95.5756747  61.9951752  66.8896912
  96.2965109  62.3733005  66.3860629  94.9522051  62.7140629  66.9931890
  99.7187870  62.6996901  67.8255245  99.9351484  63.5821539  67.5244073
  99.2381937  62.3083115  67.0960887  94.4587091  65.6582614  74.4025989
  94.3131672  65.9722917  75.2950271  93.9812295  66.2767515  73.8496888
  96.3183474  62.6485162  74.4506879  96.3045043  61.7526256  74.1139177
  97.0355902  62.6555826  75.0845165  98.1709605  63.0822503  76.4960006
  97.9127383  64.0039573  76.4944337  97.6394645  62.6852937  77.1860470
 103.1155793  76.1873290  69.2750091 103.2892671  75.6219712  68.5223944
 103.6084685  76.9874185  69.0929581  95.7220370  61.5299543  69.7194449
  95.8436281  60.6016189  69.9185336  95.4322412  61.5438229  68.8072764
  98.5911560  59.2154453  72.8561169  98.6133257  59.2793786  71.9013148
  99.0079619  58.3758962  73.0501675 108.9695185  68.9509713  70.8940391
 109.4126331  68.2017038  70.4959514 108.0921695  68.9419849  70.5114123
 104.1030966  75.5040054  66.3746990 104.7981871  76.1246747  66.5934304
 104.4454116  74.6535405  66.6499368 106.0022389  72.9539760  67.9034321
 106.5273713  73.2927032  67.1783641 105.9144742  72.0186775  67.7197455
  97.6642438  76.8673833  80.0324197  97.9729564  76.6222980  80.9046897
  98.4617920  77.0720472  79.5443067  97.6863050  79.0211743  72.2629574
  97.2468040  78.5288122  72.9562430  98.4371167  78.4784711  72.0221649
  90.1655389  75.2123284  72.2654202  90.9913409  74.9127056  71.8852845
  89.8149441  74.4430906  72.7143990  95.1336922  74.5649752  74.3351875
  94.5116931  73.9020457  74.0354103  95.8041789  74.5910884  73.6525523
  88.3663994  73.1309610  73.2243135  87.5295902  72.7031785  73.0427137
  88.3387639  73.3242054  74.1613927  95.2061449  63.0431540  83.9284381
  95.2549605  63.9193663  83.5462151  95.7483964  62.5008933  83.3556025
 105.6916295  73.5872663  83.2085519 104.9011839  73.5696802  82.6690018
 105.4549650  74.1260957  83.9634555 105.8114170  70.4365130  80.5218247
 105.8612175  70.2715137  81.4633770 105.7028094  69.5692389  80.1316128
  94.6950429  73.1153675  67.8110336  94.8438549  73.7989140  67.1577009
  95.5016872  73.0958765  68.3259792 103.1017933  66.4196058  81.8377554
 104.0027795  66.2802523  81.5461552 103.1765907  66.5850513  82.7775731
  97.4360738  63.7962912  80.6830740  96.5664047  64.0896478  80.4113329
  97.6720218  64.3803357  81.4038004 107.3132367  72.8562071  80.7660269
 107.0217175  73.2192052  81.6023730 106.7004498  72.1429079  80.5873601
 108.5128049  70.4214951  73.2862839 109.3474941  70.8604755  73.4500399
 108.6487178  69.9453604  72.4671085 105.5619555  67.9794686  79.2340327
 106.0373677  68.1722332  78.4259178 104.6385121  68.0353872  78.9883710
  92.4503062  69.1418853  68.8171405  92.2049104  68.2381183  69.0151615
  92.6198976  69.1436003  67.8750883 100.1399772  60.0142529  78.1996160
 100.6581716  60.7503556  77.8742649  99.7854905  60.3206523  79.0342920
  91.7198709  64.8747211  66.3157566  91.0267954  64.9491566  65.6597602
  91.4750461  64.1107554  66.8379083 100.3912366  56.4342812  73.7197057
 100.6714120  55.7666001  74.3457484 101.1762973  56.6271908  73.2071721
  98.1945834  75.6101806  65.2822083  97.6219801  76.2291993  64.8292555
  98.7678628  76.1601167  65.8162005 104.2621224  64.8560446  77.4668632
 105.2138647  64.9558544  77.4880856 104.0924675  64.0638714  77.9766717
 102.2835604  61.9416029  77.6528033 101.6885536  62.2221042  76.9574522
 101.9985300  62.4309930  78.4244774 101.4143094  75.8938956  66.4130666
 102.3473767  75.8284518  66.6163541 101.3266307  76.7295223  65.9545198
 104.0431111  75.2104826  63.3734613 103.9644742  74.8764690  64.2670371
 104.8640778  75.7026594  63.3726086 106.7409302  68.0766566  76.5810932
 106.7085622  67.1382566  76.7670616 107.3509926  68.1550602  75.8476757
  98.5792633  66.9462619  62.6238136  99.5251738  66.8168827  62.6926554
  98.2006878  66.2077280  63.1007564 106.8903791  64.8677609  76.6269215
 106.3742839  64.0836066  76.4399144 107.7743739  64.5396326  76.7915734
 104.5514517  58.6118625  72.5865028 104.3539339  58.3033713  73.4708360
 105.1614223  59.3380263  72.7162958 112.5585852  69.1382572  75.7216969
 113.2889240  68.8767861  76.2824672 111.9492797  68.4011294  75.7619037
 110.6401149  67.2790435  76.3191420 109.9134313  67.1446400  75.7107911
 110.2248436  67.5867264  77.1248138  98.4631325  70.9980365  84.0838793
  99.3834335  71.1758964  84.2778839  98.4280908  70.0536410  83.9318492
  96.7635550  64.8712595  62.5593021  95.8567005  64.5745708  62.6355735
  97.0411531  64.5742413  61.6927307  87.6813490  66.1918958  73.0092067
  87.3616275  65.3384267  72.7166441  87.1346919  66.4067536  73.7650035
  91.4593398  68.9081399  76.7261574  91.6779408  69.8398507  76.7449608
  91.8719172  68.5489374  77.5116378  98.3797616  59.4149485  68.7137262
  97.5698344  59.0696570  69.0892508  99.0682033  59.1057028  69.3024874
 100.3088164  58.4927531  70.3361559 100.8619203  58.9122985  70.9951582
 100.5458250  57.5663280  70.3784515  96.3321263  64.4814605  86.1164323
  96.2317990  65.4308962  86.0476414  96.1142805  64.1532844  85.2440393
  95.5334335  61.7299530  62.7005000  96.3953499  62.0554428  62.9600818
  95.7184679  60.9431026  62.1878066  87.5501750  69.8121870  74.9785189
  86.8565222  69.3975823  74.4655143  88.2974741  69.8542406  74.3818608
 103.6866971  60.6028057  69.8440223 103.1065640  61.2612861  69.4618276
 103.4202904  59.7805401  69.4327641 102.1370538  60.0033114  72.0461544
 102.6370316  60.1149649  71.2375862 102.7806145  59.6994167  72.6862352
  96.1952533  67.9111744  84.9329385  95.7119615  68.7112104  85.1393274
  96.2813472  67.9219689  83.9796829  89.4638493  69.7440124  72.8551204
  89.4409181  69.8427811  71.9033087  89.7739129  70.5905274  73.1768370
  92.1225871  71.8016279  76.9697818  93.0769124  71.7700221  76.9027750
  91.9238394  71.3406902  77.7848044  92.7125253  70.3717395  79.5368616
  93.5318142  70.8661473  79.5603453  92.9862061  69.4549363  79.5086184
 102.4691849  62.7628147  68.8996572 101.5817704  63.0477798  68.6816766
 102.8845838  62.6021910  68.0523848 105.8206385  62.7874668  72.6150911
 106.5966775  63.2771120  72.8875528 105.0954519  63.2132722  73.0722780
 108.2578944  63.5002287  73.6724851 108.8523435  63.2598023  72.9618160
 108.3305528  62.7809418  74.2998388  90.4776100  77.3435898  73.9868016
  90.3430568  76.5836299  73.4206014  90.0608162  78.0676798  73.5196805
 101.6135063  72.5272822  62.9944592 102.3170913  72.7322824  63.6102247
 100.8897711  73.0949584  63.2593675 102.4432873  68.2782683  69.1146862
 102.3868074  68.7351234  68.2754494 102.9961215  67.5173368  68.9369704
 106.2537679  64.0672415  69.9396981 105.9974613  63.6669050  70.7705189
 105.6290547  64.7816209  69.8147120 110.5650017  66.8068488  72.4468273
 110.0049575  66.8761677  73.2199835 109.9593520  66.6309473  71.7267769
  93.6345225  78.2405215  74.1986459  93.5177610  79.1850648  74.0965149
  92.8137672  77.9378777  74.5872258 103.5221760  72.9655351  65.0443052
 104.3567364  72.5336549  64.8620526 103.3606103  72.7937365  65.9719946
 103.1767652  69.4687464  66.4099391 103.1216456  69.3031736  65.4687835
 102.5513707  70.1763497  66.5661581 100.4913559  71.7736376  85.7352954
 101.3604719  71.9477028  85.3739589 100.0120311  72.5930793  85.6128683
  96.4863778  58.9695573  65.9884709  96.4742448  59.9137413  66.1452980
  97.3787200  58.7865719  65.6944170  94.6599740  78.8933477  77.4142387
  95.5626986  78.9257087  77.7308882  94.4337110  77.9633928  77.4288723
  96.4153342  77.6464464  74.0752466  95.4648973  77.6466325  73.9616838
  96.7185828  76.8997198  73.5588501 100.3015897  55.5638350  70.2430646
  99.5348293  55.0096837  70.3887328 100.7126602  55.6360219  71.1044798
  92.3057658  61.8523146  84.3335827  93.1689120  61.4959950  84.5439152
  91.7323069  61.5137040  85.0211232 112.1506035  83.4825002  75.1398228
 112.7884445  83.3631749  74.4361568 112.0326878  84.4305846  75.1986180
 108.9595741  83.4352430  75.0759753 108.6214253  83.3193495  74.1880288
 109.8285510  83.0343595  75.0560759 104.8182557  85.2887907  71.0656644
 104.2547422  85.1977843  70.2972932 104.7034952  84.4687811  71.5459136
 109.4415524  84.5887282  81.0345959 109.4304165  84.1940080  80.1626462
 109.6036164  83.8553354  81.6279730 102.3646989  86.7839098  73.9040864
 103.1568281  86.4429923  73.4887164 102.6043639  86.8934073  74.8243018
 110.3982116  88.9558874  66.3771109 109.7470096  89.5412955  65.9905123
 111.1926479  89.4865069  66.4366146 104.3237743  86.0448011  66.7758243
 105.0968619  85.4976998  66.6371119 104.6763142  86.9092261  66.9872705
 106.1622786  87.3724394  79.9825143 105.8712652  88.2770024  79.8671809
 106.7979770  87.4140921  80.6969212 107.0878992  84.7501242  76.5726502
 107.6842565  84.5257265  75.8583465 107.1453964  84.0085988  77.1751950
 106.6604021  82.2040677  64.4076693 106.9129541  81.6822199  63.6460156
 105.7228580  82.0406823  64.5103377 111.7047304  81.2076456  72.2151436
 112.4910393  80.7895879  71.8641853 111.9686008  82.1122548  72.3833085
 111.8757381  86.6449306  66.9140093 111.2403214  86.7183933  67.6260998
 111.5454787  87.2342905  66.2359172 117.1055731  81.1451689  73.1184415
 117.8380903  80.5750906  73.3522244 116.3495086  80.7573289  73.5590920
 106.3800310  84.1068783  66.6101068 106.2636568  83.4313687  67.2782152
 106.4902569  83.6201157  65.7933221 108.7231850  83.5678931  70.3147757
 108.3590058  83.0409552  71.0260679 109.5798966  83.1777400  70.1414243
 114.6281151  74.8573263  77.5779023 114.2964476  75.7268674  77.3540238
 114.0326764  74.5409547  78.2573054 108.3637337  78.5968830  65.3109106
 108.5311740  79.4649067  65.6779577 108.1734507  78.7596112  64.3870395
 111.1212671  87.0585809  76.9774936 110.8213394  87.9610848  76.8690743
 110.7763730  86.7917992  77.8296089 104.5725152  83.5099606  73.0111641
 103.6475649  83.3775820  73.2189332 104.8209565  84.2893825  73.5081583
 114.5209814  79.5768349  74.6572374 113.6126692  79.5083758  74.3631135
 114.4697410  80.0540294  75.4854199 108.3426558  81.0526488  66.2955773
 108.2226184  81.4983538  67.1341253 107.6479147  81.4011805  65.7369311
 101.9333963  83.1532880  73.8455430 102.0626344  83.4067358  74.7594841
 101.2531414  83.7460588  73.5260085 106.1033450  93.8230129  69.9445904
 106.0257480  94.7737955  70.0234384 105.4995094  93.4776002  70.6020830
 108.5950680  80.9957995  82.6007271 107.8184014  81.5551915  82.5910135
 109.2341243  81.4814778  83.1222141 116.3871461  77.7784788  76.4350247
 115.7445841  78.0717321  75.7890042 115.8826389  77.6637708  77.2403444
 114.0411624  81.5247961  67.1236107 114.9529481  81.7575348  66.9483804
 113.5321272  82.1085005  66.5611185 106.8497052  83.8043448  82.1625238
 107.5911737  84.3428492  81.8860061 106.1434038  84.4309737  82.3196790
 112.3252392  85.9472589  80.7597399 112.7335748  85.5054999  80.0152032
 111.6029654  85.3725216  81.0131592 108.6783462  80.8845196  78.1330956
 109.5244657  81.3084609  78.2765605 108.6182100  80.2278820  78.8269519
 112.6481207  86.5073779  74.5149688 112.0190069  86.6719493  73.8125756
 112.2606869  86.9215389  75.2860652 116.5270439  87.4428217  71.8694052
 115.8421477  87.8227119  71.3191085 116.6114288  88.0523544  72.6026000
 111.8282908  78.5449564  79.7912130 111.5843839  79.2991624  79.2546406
 112.1042838  78.9234911  80.6259377 113.7821370  85.0888176  78.4689395
 113.9938266  85.7319936  77.7923777 113.7351119  84.2550493  78.0011326
 111.3847599  77.7005997  75.3725968 110.5232078  77.9987250  75.6642705
 111.4110034  77.9176396  74.4407000 108.2009169  86.2448187  71.7799773
 108.6647514  86.5235890  70.9904396 107.9365967  85.3431632  71.5972864
 105.0933250  85.7919669  74.7179537 105.6634607  86.2206937  74.0797021
 105.6841362  85.5102254  75.4163722 107.1378055  82.3671340  68.5889338
 107.8402098  82.8192383  69.0563265 106.8058683  81.7255159  69.2169232
 105.5858416  80.9583096  82.9640548 104.9557077  81.6399377  83.1975945
 105.4794504  80.8466178  82.0193686 100.8803389  80.6254892  73.8906472
 100.0902443  80.8812421  73.4146583 101.3714636  81.4403230  73.9958513
 114.8967198  87.9660132  76.6411753 115.7184642  87.5640319  76.3594434
 114.8929601  87.8628366  77.5927869 102.8318134  80.9899472  70.8489949
 102.0349297  81.1018166  71.3673444 102.6043726  81.3286124  69.9830839
 108.6623802  87.5144175  78.7972463 108.7268234  87.9764582  79.6330635
 107.9534726  86.8841540  78.9254773  99.1641092  80.8785383  76.3221463
  99.4149130  81.7632393  76.5879039  99.7000640  80.6989984  75.5496555
 108.3771819  89.1812282  68.6651444 108.2417494  90.0263818  69.0936291
 108.9181632  89.3831560  67.9017377 104.8639159  75.2603862  85.3265799
 104.4706105  74.7070061  86.0013443 105.6805299  75.5714441  85.7172316
 101.8301217  86.6987720  69.2379369 102.3425737  87.4930971  69.3884933
 102.4823930  86.0014011  69.1712970 103.6396101  89.8153477  71.3202122
 103.8162730  90.7371441  71.1323106 104.4352935  89.5011896  71.7496502
 107.7807120  76.6761741  82.9186055 108.5216833  77.2768895  82.8390518
 108.0125043  75.9339379  82.3604098 102.9248458  81.8618109  81.1964285
 102.8101973  80.9603366  81.4971384 102.0692976  82.1081805  80.8449102
 110.0040296  89.8035849  82.7951786 109.5604150  89.0172228  82.4772690
 110.6657509  89.9914999  82.1295677 104.7627417  91.3331651  77.3212464
 105.3134842  91.2048714  76.5489458 103.9238893  91.6326540  76.9707357
 112.1021534  90.0838649  80.8233187 112.0840009  90.9047530  80.3313456
 113.0241454  89.9592724  81.0483328 108.5594588  87.5982778  81.6656695
 109.0922925  86.8371067  81.4356003 108.0308669  87.3056430  82.4080850
 111.7264283  72.7042844  77.1950337 111.3828552  73.5944486  77.1189448
 112.0943246  72.5144502  76.3319922  99.7950134  85.0276375  70.0138939
 100.6325356  85.4373383  69.7972647  99.9728401  84.0875817  69.9839133
 111.6914566  82.6951455  65.7022772 111.1761189  83.4656060  65.9411160
 111.4191874  82.0216592  66.3255834 109.2761677  77.5401156  70.7608011
 108.4203273  77.1508007  70.5813649 109.6888628  77.6193117  69.9007796
 110.8060823  75.0747499  75.1599570 110.3025619  75.0377635  74.3467376
 111.0991430  75.9840242  75.2196227 107.0503709  75.1586229  74.1665752
 107.9156706  74.9629038  73.8071642 107.1181218  74.9296581  75.0935109
 116.6648840  85.4483810  67.6375946 115.8878283  85.1094970  67.1931108
 117.3440321  85.4536433  66.9630911 111.4800869  80.5678548  67.5282553
 111.1751004  80.8824697  68.3792697 112.4331311  80.6459967  67.5709886
 109.9247301  86.7268771  69.1775507 109.3968662  85.9921530  68.8648745
 109.4234803  87.5043447  68.9315476 114.9040147  84.9217791  74.2942554
 114.2463821  85.6117053  74.3822682 115.7080546  85.3114223  74.6376540
 104.6566028  77.3888437  71.5382119 105.2309780  77.1663619  70.8055312
 105.2437011  77.4577132  72.2910720 113.7145605  83.2762164  72.3446495
 114.2277487  83.9092156  72.8468205 114.3646829  82.6763360  71.9789855
 104.9835615  79.4192898  65.5578004 104.1472928  79.7567585  65.8787279
 104.8440385  79.2841878  64.6205141 106.9588696  74.2629686  70.2657188
 106.3053108  73.9478703  69.6413803 106.9169170  73.6405426  70.9917011
 108.0699901  84.5448981  62.1810480 107.1626963  84.3138235  62.3801629
 108.5670933  83.7486600  62.3684462 110.9767980  93.2546488  65.1007167
 110.3029678  93.5578185  65.7092124 111.3633802  94.0575569  64.7512624
 110.1926436  80.7511620  74.5904836 109.2748998  80.9726567  74.4326524
 110.6086580  80.8257930  73.7316543 110.9761484  82.1503035  69.7207516
 111.7233303  82.6624432  69.4114638 111.2453074  81.8287088  70.5811910
 109.2488134  84.6461576  66.7034470 108.3399354  84.3620609  66.8006940
 109.2783218  85.0660655  65.8437777 114.4807402  88.2568165  70.4725638
 114.0269729  87.4159075  70.5290829 113.8501368  88.8929564  70.8100418
 113.4240321  79.1860152  71.7026306 112.6863078  78.6737538  72.0336548
 113.6767095  78.7460533  70.8909582 112.9240341  90.0944662  71.4075456
 113.2163315  90.6549719  70.6887822 113.4338961  90.3873223  72.1628615
 113.5251949  71.9636404  72.2968075 113.8310825  71.1033767  72.0093990
 114.2504553  72.5554024  72.0967069  99.8176305  82.3667090  70.6849673
  99.6200704  81.7736451  69.9600739  99.2622969  82.0619300  71.4025611
 107.7973028  82.2590197  72.8044266 107.8521638  81.3064033  72.7286742
 106.9864230  82.4149636  73.2885564 108.9464222  86.1870320  64.0422549
 108.5083652  85.4706179  63.5828186 109.6874663  86.4146434  63.4807640
 105.7365388  80.8767256  70.5634645 104.9233254  81.1761427  70.9699837
 106.2324382  80.4822945  71.2809127 107.8873966  90.8725013  72.4968909
 107.8450145  91.0985860  71.5677441 108.8036665  90.6388388  72.6454711
 111.3339600  81.3409081  79.3949539 111.6888988  81.5680554  80.2544004
 111.9811731  81.6727458  78.7726794 117.0637337  84.4627517  70.0998868
 116.9255235  84.6529113  69.1720057 116.7073556  85.2246899  70.5566919
 105.2279463  78.4485612  76.1795880 105.8678842  78.3074371  75.4818843
 104.3956994  78.1620125  75.8034482 117.0906716  86.5304044  75.1110139
 117.5243223  86.4379333  75.9593193 117.8038297  86.5061544  74.4730155
 106.0039767  87.7488042  72.2930872 106.7980365  87.2538362  72.0913447
 105.2931459  87.2205905  71.9298578 110.8234611  90.1306138  76.6443240
 110.8771634  90.6997074  77.4120956 109.9549393  90.3008023  76.2797277
 102.3122530  81.8931124  68.3690625 101.3820118  81.8315579  68.5860587
 102.4080002  81.3707077  67.5727266 102.2308079  78.4185937  70.9568866
 102.4914897  79.3331270  70.8478027 103.0525252  77.9510379  71.1065479
 103.7033005  79.8323694  78.1267691 104.3756058  79.6241056  77.4780340
 102.8762791  79.6345780  77.6872923 117.9522266  86.5727744  77.6443025
 118.1458156  87.4773555  77.8902299 117.8522884  86.1135163  78.4781610
 109.6058577  76.4585635  80.1433352 108.9586492  77.1575585  80.0497828
 110.3759592  76.8921779  80.5109600 113.0137375  86.7234487  83.2183905
 112.8622881  86.4945039  82.3013989 113.0042054  87.6805089  83.2315250
 109.7822711  84.2966400  78.2030172 110.7114771  84.4477559  78.0299139
 109.3613741  84.3850421  77.3478818 108.5811043  88.3217064  75.9728709
 108.4422129  87.9535849  76.8454647 107.7925639  88.8364704  75.8012667
 109.1759195  93.4226161  67.3154246 109.3510951  92.9514204  68.1299868
 108.4891983  94.0491927  67.5435506 110.1316258  87.6998667  73.3617547
 109.7966091  87.6599437  74.2575197 109.6320204  87.0343383  72.8887957
 104.1060502  83.1066297  78.8870128 103.9680300  82.3746536  79.4881667
 105.0165425  83.0175197  78.6054316 113.0675450  85.0454701  63.6354607
 112.4504620  84.3201529  63.5387659 112.5991938  85.8064062  63.2921681
 106.7342803  82.8186256  78.3753808 107.4442421  82.1779448  78.3340426
 106.6912111  83.0699151  79.2979989 114.7229581  89.7553610  81.2960387
 114.6642127  89.0712830  80.6290970 115.1249100  90.4972600  80.8441013
 105.4471737  79.8051474  80.1949447 104.9109094  79.3542213  80.8471044
 104.8588445  79.9397383  79.4519912 103.7420280  96.5715523  74.0894106
 103.9816878  97.2034048  74.7673124 102.8989477  96.2203564  74.3759465
 104.8573996  79.2640126  62.7575911 103.9803462  79.1428926  62.3938158
 105.3331749  78.4726204  62.5054800 114.7246989  87.7193194  79.5274367
 113.8373767  87.3819115  79.6500766 115.2945540  86.9876225  79.7643132
  96.3776136  84.0517285  72.8517418  97.0647176  83.7379015  72.2638433
  96.2224264  84.9558650  72.5784670 101.1810858  78.9407482  77.2802442
 101.0969047  78.3333151  76.5452852 100.3593564  79.4316500  77.2811938
 108.2548142  92.3794646  76.4935610 108.1818313  93.1849617  77.0054914
 107.8125535  92.5786612  75.6683631 108.0437922  91.6166416  70.0038431
 107.2605444  92.1588096  70.0976656 108.7430667  92.1340396  70.4032673
 111.3534572  77.4261045  72.6472637 111.8503271  76.6731008  72.3273707
 110.5821553  77.4625362  72.0815846 119.2064329  83.1301411  74.2890928
 119.1954205  84.0126126  73.9184861 118.3381709  82.7772962  74.0945465
 110.7146826  92.2781480  78.6493769 111.4274798  92.9128945  78.5769670
 110.2236854  92.3745346  77.8333770 112.4364352  86.1832733  70.2211060
 111.5020631  86.3034195  70.0515765 112.6141021  85.2805199  69.9571070
 107.9369540  79.5678428  72.3744321 107.5667328  79.0149469  73.0625227
 108.4328633  78.9636562  71.8219321 115.8236904  82.0250052  70.7561094
 116.2897356  82.8578044  70.6821397 116.2744404  81.5595033  71.4606353
 105.7658739  90.0275923  79.4699339 106.4668199  90.6612406  79.6228734
 105.2953854  90.3690655  78.7094979 113.8913135  88.3693873  67.7547246
 114.1672979  88.2550468  68.6641120 113.0217634  87.9711358  67.7159419
 113.7953567  74.3930639  74.7951996 112.8816646  74.6234866  74.9634203
 114.2246668  74.4769083  75.6466028 113.5660025  82.5820531  77.2951890
 112.9131475  82.8296438  76.6404342 113.9440405  81.7684669  76.9614367
 110.5267199  92.6180224  71.3980060 110.7089593  91.8001880  71.8607812
 111.3500185  92.8347916  70.9604950 110.8609364  91.5448409  68.6595109
 111.3897131  91.0340864  68.0465271 111.1237584  91.2290939  69.5240642
 109.6147598  83.3240342  83.7817927 108.9388235  83.2234471  84.4520302
 110.4375232  83.1679556  84.2453924 101.3626457  89.5612278  76.4030442
 101.9479894  88.8155966  76.5358346 101.1651296  89.8716235  77.2867106
 104.2165112  92.5963526  71.4192884 103.5475488  93.0809653  70.9356924
 104.0777982  92.8432746  72.3336263  95.9544112  82.1317879  75.1234885
  95.9928211  81.5981469  75.9172003  95.4484405  81.6053084  74.5045862
 108.3570381  94.6307269  78.0175543 108.9088689  94.7938891  78.7824628
 108.6976574  95.2211707  77.3455568 103.3334874  76.9782419  78.6197428
 103.3976201  77.8397250  78.2074825 103.2701994  76.3656421  77.8869786
 102.8087147  79.0505552  82.2670462 103.4359185  78.6682629  82.8807986
 101.9515066  78.8319754  82.6326154 113.2081255  89.4568527  83.8724197
 113.7521159  90.0698485  83.3779152 112.6268100  90.0148105  84.3891210
  99.5852689  80.8581981  68.1988817  99.8806131  79.9492659  68.1455870
  98.6840725  80.8369720  67.8769819 111.4938768  92.5789245  75.0039225
 111.3689908  91.7778985  74.4950170 112.1517859  93.0735438  74.5153195
 103.1146936  78.9337977  74.1816365 102.3933522  79.5473945  74.0423839
 103.9040192  79.4695742  74.1033011 113.5573677  90.3798265  76.6318775
 112.6104012  90.2603616  76.5597102 113.9056450  89.4920763  76.7145036
 105.9173250  76.2692404  80.4557017 106.4407652  76.5154700  81.2183326
 105.6985583  77.1012439  80.0360154 101.3140531  78.5396078  68.3228142
 100.9853237  77.6593457  68.1403248 101.6679902  78.4843747  69.2104531
 110.5620110  90.1750981  72.8323127 110.4145072  89.2467689  73.0130697
 111.3873603  90.1971072  72.3480203 104.4282354  78.8269048  68.6903619
 104.7678427  79.3554970  67.9682228 104.8754475  79.1649454  69.4662186
 114.1654232  90.9979540  73.9188000 115.0900779  90.7922401  73.7812451
 113.9969535  90.7495941  74.8277342 107.1225795  77.2106099  78.1406687
 106.7822615  76.4113912  78.5427367 106.4164801  77.5107810  77.5683521
 107.7742267  74.2955411  76.5934011 108.5968336  73.8215890  76.4712901
 108.0180330  75.0745895  77.0932697 106.4150501  77.3243670  66.8896912
 107.1358864  77.7024923  66.3860629 105.7915805  78.0432547  66.9931890
 110.5581624  78.0288819  67.8255245 110.7745239  78.9113457  67.5244073
 110.0775691  77.6375032  67.0960887 105.2980846  80.9874532  74.4025989
 105.1525426  81.3014835  75.2950271 104.8206049  81.6059432  73.8496888
 107.1577228  77.9777080  74.4506879 107.1438797  77.0818173  74.1139177
 107.8749657  77.9847744  75.0845165 109.0103359  78.4114420  76.4960006
 108.7521137  79.3331491  76.4944337 108.4788400  78.0144855  77.1860470
 113.9549548  91.5165207  69.2750091 114.1286425  90.9511630  68.5223944
 114.4478439  92.3166102  69.0929581  99.7726508  83.5279876  77.3413650
  99.2279976  84.3039684  77.4733925 100.6505858  83.8750681  77.1832772
 106.5614124  76.8591460  69.7194449 106.6830036  75.9308107  69.9185336
 106.2716167  76.8730146  68.8072764 109.4305315  74.5446371  72.8561169
 109.4527012  74.6085704  71.9013148 109.8473374  73.7050879  73.0501675
 119.8088939  84.2801630  70.8940391 120.2520085  83.5308956  70.4959514
 118.9315449  84.2711767  70.5114123 114.9424720  90.8331972  66.3746990
 115.6375625  91.4538664  66.5934304 115.2847871  89.9827323  66.6499368
 100.5592530  82.6549773  80.2343807  99.8174266  82.8032408  80.8208438
 100.2385274  82.9158038  79.3710557 116.8416144  88.2831677  67.9034321
 117.3667468  88.6218950  67.1783641 116.7538496  87.3478693  67.7197455
 108.5036192  92.1965751  80.0324197 108.8123319  91.9514898  80.9046897
 109.3011674  92.4012389  79.5443067 108.5256804  94.3503661  72.2629574
 108.0861795  93.8580039  72.9562430 109.2764921  93.8076628  72.0221649
 101.0049143  90.5415201  72.2654202 101.8307163  90.2418973  71.8852845
 100.6543195  89.7722824  72.7143990 105.9730676  89.8941670  74.3351875
 105.3510686  89.2312375  74.0354103 106.6435543  89.9202802  73.6525523
  99.2057748  88.4601528  73.2243135  98.3689657  88.0323702  73.0427137
  99.1781394  88.6533971  74.1613927 106.0455204  78.3723458  83.9284381
 106.0943359  79.2485581  83.5462151 106.5877718  77.8300851  83.3556025
 116.5310050  88.9164581  83.2085519 115.7405593  88.8988720  82.6690018
 116.2943404  89.4552875  83.9634555 116.6507925  85.7657047  80.5218247
 116.7005930  85.6007055  81.4633770 116.5421848  84.8984306  80.1316128
 105.5344183  88.4445593  67.8110336 105.6832304  89.1281057  67.1577009
 106.3410627  88.4250683  68.3259792 113.9411687  81.7487975  81.8377554
 114.8421550  81.6094440  81.5461552 114.0159662  81.9142430  82.7775731
 108.2754492  79.1254830  80.6830740 107.4057802  79.4188396  80.4113329
 108.5113973  79.7095275  81.4038004 118.1526121  88.1853989  80.7660269
 117.8610930  88.5483969  81.6023730 117.5398253  87.4720997  80.5873601
 119.3521804  85.7506869  73.2862839 120.1868695  86.1896673  73.4500399
 119.4880933  85.2745522  72.4671085 116.4013310  83.3086603  79.2340327
 116.8767431  83.5014250  78.4259178 115.4778875  83.3645789  78.9883710
 103.2896816  84.4710771  68.8171405 103.0442858  83.5673101  69.0151615
 103.4592731  84.4727921  67.8750883 110.9793526  75.3434447  78.1996160
 111.4975470  76.0795474  77.8742649 110.6248659  75.6498440  79.0342920
 102.5592464  80.2039128  66.3157566 101.8661709  80.2783483  65.6597602
 102.3144216  79.4399472  66.8379083 111.2306120  71.7634730  73.7197057
 111.5107874  71.0957919  74.3457484 112.0156727  71.9563825  73.2071721
 109.0339589  90.9393723  65.2822083 108.4613556  91.5583911  64.8292555
 109.6072383  91.4893085  65.8162005 115.1014979  80.1852364  77.4668632
 116.0532402  80.2850461  77.4880856 114.9318429  79.3930632  77.9766717
 113.1229358  77.2707947  77.6528033 112.5279290  77.5512959  76.9574522
 112.8379055  77.7601848  78.4244774 112.2536849  91.2230874  66.4130666
 113.1867522  91.1576435  66.6163541 112.1660061  92.0587140  65.9545198
 114.8824865  90.5396744  63.3734613 114.8038497  90.2056608  64.2670371
 115.7034532  91.0318512  63.3726086 117.5803057  83.4058483  76.5810932
 117.5479377  82.4674484  76.7670616 118.1903680  83.4842520  75.8476757
 109.4186387  82.2754536  62.6238136 110.3645492  82.1460744  62.6926554
 109.0400632  81.5369198  63.1007564 117.7297545  80.1969527  76.6269215
 117.2136594  79.4127983  76.4399144 118.6137494  79.8688243  76.7915734
 115.3908272  73.9410542  72.5865028 115.1933093  73.6325630  73.4708360
 116.0007978  74.6672181  72.7162958 109.3025080  86.3272282  84.0838793
 110.2228089  86.5050881  84.2778839 109.2674663  85.3828328  83.9318492
 107.6029305  80.2004513  62.5593021 106.6960760  79.9037625  62.6355735
 107.8805286  79.9034331  61.6927307  98.5207245  81.5210876  73.0092067
  98.2010029  80.6676184  72.7166441  97.9740673  81.7359454  73.7650035
 102.2987152  84.2373317  76.7261574 102.5173162  85.1690425  76.7449608
 102.7112926  83.8781291  77.5116378 109.2191370  74.7441402  68.7137262
 108.4092099  74.3988487  69.0892508 109.9075787  74.4348946  69.3024874
 111.1481919  73.8219449  70.3361559 111.7012957  74.2414903  70.9951582
 111.3852005  72.8955197  70.3784515 107.1715018  79.8106523  86.1164323
 107.0711745  80.7600880  86.0476414 106.9536560  79.4824762  85.2440393
 106.3728089  77.0591448  62.7005000 107.2347253  77.3846346  62.9600818
 106.5578433  76.2722944  62.1878066  98.3895505  85.1413788  74.9785189
  97.6958976  84.7267740  74.4655143  99.1368496  85.1834324  74.3818608
 114.5260726  75.9319974  69.8440223 113.9459395  76.5904778  69.4618276
 114.2596658  75.1097319  69.4327641 112.9764292  75.3325032  72.0461544
 113.4764070  75.4441567  71.2375862 113.6199900  75.0286085  72.6862352
 107.0346288  83.2403662  84.9329385 106.5513370  84.0404022  85.1393274
 107.1207227  83.2511606  83.9796829 100.3032247  85.0732041  72.8551204
 100.2802936  85.1719729  71.9033087 100.6132884  85.9197192  73.1768370
 102.9619625  87.1308196  76.9697818 103.9162879  87.0992139  76.9027750
 102.7632149  86.6698820  77.7848044 103.5519007  85.7009312  79.5368616
 104.3711896  86.1953391  79.5603453 103.8255815  84.7841281  79.5086184
 113.3085604  78.0920065  68.8996572 112.4211459  78.3769715  68.6816766
 113.7239593  77.9313828  68.0523848 116.6600140  78.1166586  72.6150911
 117.4360530  78.6063038  72.8875528 115.9348274  78.5424640  73.0722780
 119.0972698  78.8294205  73.6724851 119.6917189  78.5889941  72.9618160
 119.1699282  78.1101335  74.2998388 101.3169854  92.6727816  73.9868016
 101.1824322  91.9128217  73.4206014 100.9001916  93.3968716  73.5196805
 112.4528817  87.8564739  62.9944592 113.1564667  88.0614742  63.6102247
 111.7291466  88.4241501  63.2593675 113.2826627  83.6074601  69.1146862
 113.2261829  84.0643152  68.2754494 113.8354970  82.8465285  68.9369704
 117.0931433  79.3964332  69.9396981 116.8368368  78.9960968  70.7705189
 116.4684301  80.1108126  69.8147120 104.4738980  93.5697133  74.1986459
 104.3571364  94.5142565  74.0965149 103.6531426  93.2670694  74.5872258
 114.3615515  88.2947269  65.0443052 115.1961118  87.8628467  64.8620526
 114.1999857  88.1229282  65.9719946 114.0161407  84.7979382  66.4099391
 113.9610210  84.6323653  65.4687835 113.3907462  85.5055415  66.5661581
  98.8053922  80.0347446  80.2360813  99.4512785  79.5246400  80.7248038
  98.5971073  80.7716128  80.8104238 111.3307314  87.1028294  85.7352954
 112.1998474  87.2768946  85.3739589 110.8514065  87.9222711  85.6128683
 107.3257532  74.2987491  65.9884709 107.3136202  75.2429331  66.1452980
 108.2180954  74.1157636  65.6944170 105.4993494  94.2225395  77.4142387
 106.4020741  94.2549005  77.7308882 105.2730864  93.2925846  77.4288723
 107.2547096  92.9756381  74.0752466 106.3042727  92.9758243  73.9616838
 107.5579582  92.2289116  73.5588501 111.1409652  70.8930267  70.2430646
 110.3742047  70.3388754  70.3887328 111.5520357  70.9652136  71.1044798
 103.1451413  77.1815063  84.3335827 104.0082874  76.8251868  84.5439152
 102.5716823  76.8428958  85.0211232 115.6576312 100.6179824  71.0656644
 115.0941177 100.5269761  70.2972932 115.5428707  99.7979729  71.5459136
 120.2809279  99.9179199  81.0345959 120.2697920  99.5231998  80.1626462
 120.4429918  99.1845272  81.6279730 113.2040744 102.1131016  73.9040864
 113.9962035 101.7721840  73.4887164 113.4437394 102.2225991  74.8243018
 115.1631497 101.3739929  66.7758243 115.9362373 100.8268916  66.6371119
 115.5156896 102.2384178  66.9872705 117.0016540 102.7016311  79.9825143
 116.7106406 103.6061942  79.8671809 117.6373524 102.7432839  80.6969212
 117.9272747 100.0793160  76.5726502 118.5236319  99.8549182  75.8583465
 117.9847718  99.3377905  77.1751950 117.4997775  97.5332595  64.4076693
 117.7523296  97.0114116  63.6460156 116.5622334  97.3698741  64.5103377
 117.2194064  99.4360701  66.6101068 117.1030322  98.7605604  67.2782152
 117.3296324  98.9493075  65.7933221 119.5625605  98.8970848  70.3147757
 119.1983812  98.3701469  71.0260679 120.4192721  98.5069317  70.1414243
 119.2031092  93.9260748  65.3109106 119.3705494  94.7940984  65.6779577
 119.0128261  94.0888030  64.3870395 115.4118907  98.8391524  73.0111641
 114.4869403  98.7067738  73.2189332 115.6603320  99.6185743  73.5081583
 119.1820313  96.3818405  66.2955773 119.0619938  96.8275456  67.1341253
 118.4872901  96.7303723  65.7369311 112.7727718  98.4824797  73.8455430
 112.9020099  98.7359276  74.7594841 112.0925169  99.0752505  73.5260085
 119.4344435  96.3249913  82.6007271 118.6577769  96.8843833  82.5910135
 120.0734998  96.8106696  83.1222141 117.6890807  99.1335366  82.1625238
 118.4305491  99.6720410  81.8860061 116.9827792  99.7601655  82.3196790
 119.5177217  96.2137113  78.1330956 120.3638412  96.6376527  78.2765605
 119.4575854  95.5570737  78.8269519 119.0402923 101.5740105  71.7799773
 119.5041269 101.8527808  70.9904396 118.7759721 100.6723550  71.5972864
 115.9327004 101.1211587  74.7179537 116.5028361 101.5498855  74.0797021
 116.5235116 100.8394171  75.4163722 117.9771809  97.6963257  68.5889338
 118.6795853  98.1484301  69.0563265 117.6452438  97.0547076  69.2169232
 116.4252171  96.2875014  82.9640548 115.7950831  96.9691295  83.1975945
 116.3188259  96.1758096  82.0193686 111.7197143  95.9546810  73.8906472
 110.9296197  96.2104339  73.4146583 112.2108391  96.7695148  73.9958513
 113.6711889  96.3191389  70.8489949 112.8743052  96.4310084  71.3673444
 113.4437481  96.6578042  69.9830839 119.5017556 102.8436093  78.7972463
 119.5661989 103.3056500  79.6330635 118.7928480 102.2133458  78.9254773
 110.0034846  96.2077301  76.3221463 110.2542885  97.0924311  76.5879039
 110.5394395  96.0281902  75.5496555 115.7032913  90.5895780  85.3265799
 115.3099859  90.0361979  86.0013443 116.5199054  90.9006358  85.7172316
 112.6694971 102.0279638  69.2379369 113.1819492 102.8222888  69.3884933
 113.3217684 101.3305929  69.1712970 114.4789856 105.1445394  71.3202122
 114.6556484 106.0663359  71.1323106 115.2746689 104.8303814  71.7496502
 118.6200874  92.0053659  82.9186055 119.3610588  92.6060812  82.8390518
 118.8518797  91.2631297  82.3604098 113.7642212  97.1910026  81.1964285
 113.6495728  96.2895284  81.4971384 112.9086730  97.4373723  80.8449102
 119.3988342 102.9274696  81.6656695 119.9316679 102.1662984  81.4356003
 118.8702424 102.6348348  82.4080850 110.6343888 100.3568292  70.0138939
 111.4719110 100.7665301  69.7972647 110.8122156  99.4167735  69.9839133
 117.8897464  90.4878147  74.1665752 118.7550460  90.2920956  73.8071642
 117.9574973  90.2588499  75.0935109 115.4959783  92.7180355  71.5382119
 116.0703535  92.4955536  70.8055312 116.0830765  92.7869049  72.2910720
 115.8229370  94.7484816  65.5578004 114.9866682  95.0859502  65.8787279
 115.6834140  94.6133796  64.6205141 117.7982450  89.5921604  70.2657188
 117.1446863  89.2770621  69.6413803 117.7562925  88.9697344  70.9917011
 118.9093655  99.8740899  62.1810480 118.0020717  99.6430152  62.3801629
 119.4064687  99.0778518  62.3684462 120.0881889  99.9753494  66.7034470
 119.1793108  99.6912526  66.8006940 120.1176973 100.3952572  65.8437777
 110.6570059  97.6959008  70.6849673 110.4594459  97.1028368  69.9600739
 110.1016723  97.3911218  71.4025611 118.6366783  97.5882114  72.8044266
 118.6915393  96.6355951  72.7286742 117.8257985  97.7441553  73.2885564
 116.5759143  96.2059174  70.5634645 115.7627008  96.5053345  70.9699837
 117.0718137  95.8114863  71.2809127 116.0673217  93.7777530  76.1795880
 116.7072597  93.6366289  75.4818843 115.2350748  93.4912043  75.8034482
 116.8433521 103.0779960  72.2930872 117.6374120 102.5830280  72.0913447
 116.1325214 102.5497823  71.9298578 113.1516285  97.2223042  68.3690625
 112.2213873  97.1607497  68.5860587 113.2473757  96.6998994  67.5727266
 113.0701834  93.7477855  70.9568866 113.3308651  94.6623188  70.8478027
 113.8919006  93.2802297  71.1065479 114.5426759  95.1615612  78.1267691
 115.2149813  94.9532974  77.4780340 113.7156546  94.9637698  77.6872923
 119.4204797 103.6508982  75.9728709 119.2815883 103.2827766  76.8454647
 118.6319394 104.1656621  75.8012667 114.9454256  98.4358215  78.8870128
 114.8074054  97.7038453  79.4881667 115.8559180  98.3467115  78.6054316
 117.5736557  98.1478174  78.3753808 118.2836176  97.5071366  78.3340426
 117.5305865  98.3991069  79.2979989 116.2865491  95.1343392  80.1949447
 115.7502848  94.6834130  80.8471044 115.6982200  95.2689301  79.4519912
 115.6967750  94.5932043  62.7575911 114.8197216  94.4720844  62.3938158
 116.1725503  93.8018122  62.5054800 107.2169890  99.3809203  72.8517418
 107.9040930  99.0670933  72.2638433 107.0618019 100.2850568  72.5784670
 112.0204612  94.2699400  77.2802442 111.9362801  93.6625069  76.5452852
 111.1987319  94.7608418  77.2811938 118.7763295  94.8970346  72.3744321
 118.4061083  94.3441386  73.0625227 119.2722387  94.2928480  71.8219321
 112.2020212 104.8904196  76.4030442 112.7873648 104.1447884  76.5358346
 112.0045050 105.2008153  77.2867106 106.7937866  97.4609796  75.1234885
 106.8321966  96.9273387  75.9172003 106.2878159  96.9345002  74.5045862
 114.1728629  92.3074337  78.6197428 114.2369955  93.1689168  78.2074825
 114.1095749  91.6948339  77.8869786 113.6480901  94.3797469  82.2670462
 114.2752940  93.9974547  82.8807986 112.7908820  94.1611671  82.6326154
 110.4246444  96.1873899  68.1988817 110.7199885  95.2784577  68.1455870
 109.5234480  96.1661638  67.8769819 113.9540691  94.2629895  74.1816365
 113.2327277  94.8765863  74.0423839 114.7433947  94.7987660  74.1033011
 116.7567004  91.5984322  80.4557017 117.2801406  91.8446618  81.2183326
 116.5379338  92.4304356  80.0360154 112.1534286  93.8687996  68.3228142
 111.8246992  92.9885375  68.1403248 112.5073656  93.8135665  69.2104531
 115.2676109  94.1560966  68.6903619 115.6072181  94.6846887  67.9682228
 115.7148229  94.4941372  69.4662186 117.9619549  92.5398017  78.1406687
 117.6216370  91.7405830  78.5427367 117.2558556  92.8399728  77.5683521
 118.6136021  89.6247329  76.5934011 119.4362091  89.1507807  76.4712901
 118.8574085  90.4037813  77.0932697 117.2544256  92.6535588  66.8896912
 117.9752618  93.0316840  66.3860629 116.6309560  93.3724464  66.9931890
 116.1374600  96.3166450  74.4025989 115.9919181  96.6306753  75.2950271
 115.6599804  96.9351350  73.8496888 117.9970983  93.3068998  74.4506879
 117.9832552  92.4110091  74.1139177 118.7143411  93.3139661  75.0845165
 119.8497114  93.7406338  76.4960006 119.5914891  94.6623409  76.4944337
 119.3182154  93.3436772  77.1860470 110.6120262  98.8571794  77.3413650
 110.0673730  99.6331602  77.4733925 111.4899612  99.2042599  77.1832772
 117.4007879  92.1883378  69.7194449 117.5223790  91.2600024  69.9185336
 117.1109921  92.2022064  68.8072764 111.3986284  97.9841690  80.2343807
 110.6568020  98.1324326  80.8208438 111.0779028  98.2449956  79.3710557
 111.8442898 105.8707119  72.2654202 112.6700918 105.5710891  71.8852845
 111.4936950 105.1014742  72.7143990 116.8124431 105.2233587  74.3351875
 116.1904440 104.5604292  74.0354103 117.4829298 105.2494719  73.6525523
 110.0451503 103.7893446  73.2243135 109.2083411 103.3615620  73.0427137
 110.0175148 103.9825889  74.1613927 116.8848958  93.7015375  83.9284381
 116.9337114  94.5777498  83.5462151 117.4271473  93.1592768  83.3556025
 116.3737938 103.7737511  67.8110336 116.5226058 104.4572975  67.1577009
 117.1804381 103.7542601  68.3259792 119.1148247  94.4546748  80.6830740
 118.2451556  94.7480314  80.4113329 119.3507727  95.0387193  81.4038004
 114.1290571  99.8002688  68.8171405 113.8836613  98.8965018  69.0151615
 114.2986485  99.8019839  67.8750883 113.3986218  95.5331046  66.3157566
 112.7055463  95.6075401  65.6597602 113.1537970  94.7691390  66.8379083
 118.4423059  95.5296430  62.5593021 117.5354514  95.2329543  62.6355735
 118.7199040  95.2326248  61.6927307 109.3600999  96.8502794  73.0092067
 109.0403784  95.9968102  72.7166441 108.8134428  97.0651372  73.7650035
 113.1380907  99.5665235  76.7261574 113.3566917 100.4982343  76.7449608
 113.5506681  99.2073209  77.5116378 118.0108772  95.1398440  86.1164323
 117.9105499  96.0892797  86.0476414 117.7930314  94.8116679  85.2440393
 117.2121844  92.3883366  62.7005000 118.0741008  92.7138264  62.9600818
 117.3972188  91.6014861  62.1878066 109.2289259 100.4705705  74.9785189
 108.5352731 100.0559658  74.4655143 109.9762250 100.5126242  74.3818608
 117.8740042  98.5695579  84.9329385 117.3907124  99.3695939  85.1393274
 117.9600981  98.5803524  83.9796829 111.1426002 100.4023959  72.8551204
 111.1196690 100.5011646  71.9033087 111.4526638 101.2489110  73.1768370
 113.8013380 102.4600114  76.9697818 114.7556633 102.4284056  76.9027750
 113.6025903 101.9990738  77.7848044 114.3912762 101.0301230  79.5368616
 115.2105651 101.5245309  79.5603453 114.6649570 100.1133198  79.5086184
 112.1563609 108.0019733  73.9868016 112.0218077 107.2420134  73.4206014
 111.7395671 108.7260633  73.5196805 109.6447676  95.3639364  80.2360813
 110.2906540  94.8538318  80.7248038 109.4364827  96.1008046  80.8104238
 118.1651287  89.6279409  65.9884709 118.1529956  90.5721248  66.1452980
 119.0574709  89.4449554  65.6944170 113.9845167  92.5106981  84.3335827
 114.8476629  92.1543786  84.5439152 113.4110578  92.1720876  85.0211232
  51.9064679  -5.8167336  56.6691211  51.8288709  -4.8659511  56.7479691
  51.3026323  -6.1621464  57.3266137  49.5451509  -3.0681942  60.8139413
  49.7848107  -2.4363418  61.4918431  48.7020705  -3.4193902  61.1004772
  54.1601610  -5.0090196  64.7420849  54.7119918  -4.8458575  65.5069935
  54.5007803  -4.4185759  64.0700874  47.1201083  -6.9669650  60.7113323
  46.9855551  -7.7269249  60.1451321  46.7033145  -6.2428750  60.2442112
  50.2770209  -6.0700333  60.9231766  50.1602593  -5.1254900  60.8210456
  49.4562655  -6.3726771  61.3117565  51.3024723  -5.4172071  64.1387694
  52.2051970  -5.3848461  64.4554189  51.0762093  -6.3471620  64.1534030
  61.4607540   0.9782358  57.7901951  60.8972406   0.8872295  57.0218238
  61.3459935   0.1582263  58.2704443  66.0840508   0.2781734  67.7591265
  66.0729148  -0.1165468  66.8871769  66.2461147  -0.4552194  68.3525037
  59.0071972   2.4733550  60.6286171  59.7993264   2.1324375  60.2132470
  59.2468622   2.5828525  61.5488324  67.0407099   4.6453326  53.1016416
  66.3895079   5.2307407  52.7150429  67.8351462   5.1759521  53.1611453
  60.9662726   1.7342463  53.5003550  61.7393602   1.1871450  53.3616426
  61.3188125   2.5986713  53.7118011  62.8047769   3.0618846  66.7070449
  62.5137635   3.9664476  66.5917115  63.4404753   3.1035373  67.4214519
  63.7303976   0.4395694  63.2971809  64.3267548   0.2151716  62.5828772
  63.7878947  -0.3019560  63.8997257  68.5182364   2.3343758  53.6385400
  67.8828197   2.4078385  54.3506304  68.1879771   2.9237357  52.9604479
  63.0225293  -0.2036765  53.3346375  62.9061551  -0.8791861  54.0027459
  63.1327553  -0.6904391  52.5178528  67.7637654   2.7480261  63.7020243
  67.4638377   3.6505300  63.5936050  67.4188713   2.4812444  64.5541396
  61.2150135  -0.8005942  59.7356947  60.2900632  -0.9329728  59.9434639
  61.4634549  -0.0211723  60.2326890  58.5758946  -1.1572669  60.5700736
  58.7051328  -0.9038190  61.4840148  57.8956398  -0.5644961  60.2505391
  62.7458434   9.5124581  56.6691211  62.6682463  10.4632406  56.7479691
  62.1420077   9.1670454  57.3266137  63.4922036  -0.5062100  68.8870544
  64.2336720   0.0322944  68.6105368  62.7859021   0.1204189  69.0442096
  68.9677375   1.6367041  67.4842706  69.3760731   1.1949451  66.7397338
  68.2454637   1.0619668  67.7376899  69.2906190   2.1968231  61.2394995
  68.6615053   2.3613945  60.5371063  68.9031852   2.6109841  62.0105959
  73.1695422   3.1322669  58.5939359  72.4846460   3.5121570  58.0436392
  73.2539271   3.7417996  59.3271306  64.8434152   1.9342639  58.5045080
  65.3072497   2.2130342  57.7149702  64.5790950   1.0326084  58.3218171
  61.7358233   1.4814121  61.4424843  62.3059590   1.9101389  60.8042328
  62.3266345   1.1996706  62.1409029  57.5228372  -3.6850656  60.6151779
  56.7327426  -3.4293127  60.1391889  58.0139619  -2.8702318  60.7203819
  71.5392182   3.6554584  63.3657059  72.3609625   3.2534771  63.0839741
  71.5354584   3.5522818  64.3173175  59.4743117  -3.3206076  57.5735255
  58.6774281  -3.2087382  58.0918751  59.2468710  -2.9819424  56.7076146
  65.3048785   3.2038627  65.5217770  65.3693217   3.6659034  66.3575942
  64.5959709   2.5735992  65.6500080  55.8066075  -3.4320165  63.0466769
  56.0574113  -2.5473155  63.3124345  56.3425623  -3.6115564  62.2741861
  65.0196803   4.8706734  55.3896750  64.8842477   5.7158270  55.8181598
  65.5606615   5.0726012  54.6262684  58.4726200   2.3882172  55.9624675
  58.9850721   3.1825423  56.1130240  59.1248913   1.6908463  55.8958277
  60.2821085   5.5047929  58.0447429  60.4587713   6.4265893  57.8568412
  61.0777918   5.1906348  58.4741808  59.5673441  -2.4487439  67.9209592
  59.4526956  -3.3502182  68.2216691  58.7117959  -2.2023743  67.5694408
  66.6465279   5.4930301  69.5197092  66.2029133   4.7066679  69.2017997
  67.3082493   5.6809451  68.8540983  61.4052400   7.0226102  64.0457771
  61.9559825   6.8943166  63.2734765  60.5663876   7.3220991  63.6952664
  68.7446517   5.7733101  67.5478494  68.7264992   6.5941982  67.0558763
  69.6666437   5.6487176  67.7728635  65.2019571   3.2877230  68.3902002
  65.7347908   2.5265518  68.1601310  64.6733652   2.9950882  69.1326156
  56.4375117   0.7170827  56.7384246  57.2750339   1.1267835  56.5217954
  56.6153385  -0.2229731  56.7084440  66.5672284   2.4163223  55.9020814
  66.0393646   1.6815982  55.5894051  66.0659787   3.1937899  55.6560782
  64.7124884   0.2343433  48.9055787  63.8051946   0.0032686  49.1046936
  65.2095916  -0.5618948  49.0929769  67.6192963   8.9440940  51.8252473
  66.9454662   9.2472637  52.4337431  68.0058785   9.7470021  51.4757930
  65.8913118   0.3356028  53.4279777  64.9824337   0.0515061  53.5252247
  65.9208201   0.7555106  52.5683084  71.1232385   3.9462617  57.1970945
  70.6694712   3.1053527  57.2536135  70.4926352   4.5824016  57.5345725
  69.5665324   5.7839114  58.1320763  69.8588299   6.3444171  57.4133128
  70.0763945   6.0767675  58.8873922  56.4601288  -1.9438458  57.4094979
  56.2625688  -2.5369097  56.6846046  55.9047952  -2.2486248  58.1270918
  65.5889205   1.8764772  50.7667856  65.1508635   1.1600630  50.3073493
  66.3299646   2.1040886  50.2052947  64.5298949   6.5619465  59.2214216
  64.4875128   6.7880311  58.2922748  65.4461648   6.3282840  59.3700017
  73.7331700   2.2198496  61.8355446  74.1668206   2.1273785  62.6838500
  74.4463280   2.1955996  61.1975462  62.6464750   3.4382494  59.0176179
  63.4405349   2.9432814  58.8158754  61.9356443   2.9100357  58.6543884
  67.4659595   5.8200590  63.3688546  67.5196617   6.3891526  64.1366262
  66.5974376   5.9902475  63.0042584  58.9547514  -2.4174424  55.0935931
  58.0245102  -2.4789969  55.3105894  59.0504986  -2.9398471  54.2972573
  69.6562358   2.4128939  69.9429212  69.5047864   2.1839491  69.0259295
  69.6467037   3.3699540  69.9560557  66.4247694  -0.0139148  64.9275478
  67.3539754   0.1372011  64.7544446  66.0038724   0.0744873  64.0724125
  65.2236026   4.0111516  62.6974016  65.0847112   3.6430301  63.5699954
  64.4350622   4.5259156  62.5257974  65.8184178   9.1120613  54.0399552
  65.9935934   8.6408656  54.8545175  65.1316966   9.7386379  54.2680813
  66.7741241   3.3893119  60.0862854  66.4391074   3.3493889  60.9820504
  66.2745187   2.7237835  59.6133264  60.7485485  -1.2039251  65.6115435
  60.6105283  -1.9359012  66.2126974  61.6590409  -1.2930351  65.3299623
  69.7100433   0.7349153  50.3599913  69.0929604   0.0095981  50.2632966
  69.2416921   1.4958513  50.0166988  71.3654565   5.4448062  68.0205694
  71.3067111   4.7607282  67.3536277  71.7674083   6.1867052  67.5686320
  71.3671972   3.4087645  66.2519673  70.4798751   3.0713567  66.3746072
  71.9370523   2.6770677  66.4888439  53.0201119  -0.2588263  59.5762725
  53.7072159  -0.5726533  58.9883740  52.8649248   0.6453102  59.3029976
  64.8973125   8.0689098  63.2180917  64.8243297   8.8744069  63.7300221
  64.4550518   8.2681064  62.3928938  64.6862905   7.3060868  56.7283738
  63.9030427   7.8482548  56.8221963  65.3855650   7.8234847  57.1277979
  67.3571809   7.9675932  65.3739075  68.0699781   8.6023397  65.3014977
  66.8661837   8.0639798  64.5579077  69.0789336   1.8727185  56.9456367
  68.1445614   1.9928647  56.7761071  69.2566004   0.9699651  56.6816377
  62.4083722   5.7170375  66.1944646  63.1093182   6.3506858  66.3474040
  61.9378837   6.0585107  65.4340285  70.5338118   4.0588325  54.4792553
  70.8097962   3.9444920  55.3886427  69.6642617   3.6605810  54.4404726
  67.1692182   8.3074676  58.1225367  67.3514577   7.4896332  58.5853119
  67.9925168   8.5242368  57.6850257  67.5034348   7.2342861  55.3840415
  68.0322114   6.7235316  54.7710577  67.7662567   6.9185391  56.2485948
  58.0051440   5.2506730  63.1275749  58.5904877   4.5050418  63.2603653
  57.8076279   5.5610687  64.0112413  60.8590096   8.2857978  58.1438191
  60.1900471   8.7704105  57.6602231  60.7202965   8.5327198  59.0581570
  52.5969095  -2.1787669  61.8480192  52.6353195  -2.7124079  62.6417310
  52.0909388  -2.7052464  61.2291169  64.9995364  10.3201721  64.7420849
  65.5513672  10.4833343  65.5069935  65.3401558  10.9106159  64.0700874
  69.8506239   5.1462979  70.5969504  70.3946143   5.7592937  70.1024459
  69.2693083   5.7042557  71.1136517  56.2277673  -3.4523567  54.9234123
  56.5231114  -4.3612889  54.8701177  55.3265708  -3.4735828  54.6015126
  68.1363751   8.2683697  61.7284532  68.0114891   7.4673437  61.2195477
  68.7942843   8.7629890  61.2398502  70.1998660   6.0692717  63.3564082
  69.2528995   5.9498068  63.2842408  70.5481433   5.1815215  63.4390343
  67.2045093   5.8645433  59.5568434  67.0570056   4.9362141  59.7376004
  68.0298587   5.8865524  59.0725509  70.8079215   6.6873992  60.6433307
  71.7325762   6.4816853  60.5057758  70.6394518   6.4390393  61.5522648
  70.5974531   7.2059659  55.9995398  70.7711409   6.6406082  55.2469251
  71.0903422   8.0060554  55.8174888  56.4151491  -0.7825672  64.0658957
  55.8704959  -0.0065864  64.1979231  57.2930841  -0.4354867  63.9078078
  71.5849704   6.5226424  53.0992296  72.2800608   7.1433116  53.3179611
  71.9272854   5.6721775  53.3744674  57.2017513  -1.6555775  66.9589114
  56.4599249  -1.5073140  67.5453744  56.8810257  -1.3947510  66.0955863
  73.4841127   3.9726129  54.6279627  74.0092451   4.3113402  53.9028947
  73.3963479   3.0373145  54.4442762  65.1461176   7.8860203  66.7569504
  65.4548302   7.6409350  67.6292203  65.9436658   8.0906841  66.2688374
  65.1681788  10.0398112  58.9874880  64.7286778   9.5474491  59.6807737
  65.9189905   9.4971080  58.7466956  57.6474127   6.2309653  58.9899508
  58.4732146   5.9313425  58.6098152  57.2968179   5.4617276  59.4389297
  62.6155660   5.5836122  61.0597182  61.9935669   4.9206827  60.7599410
  63.2860527   5.6097253  60.3770830  55.8482732   4.1495980  59.9488442
  55.0114640   3.7218154  59.7672443  55.8206377   4.3428423  60.8859233
  73.1735033   4.6059033  69.9330825  72.3830577   4.5883172  69.3935325
  72.9368387   5.1447327  70.6879862  62.1769167   4.1340045  54.5355643
  62.3257287   4.8175509  53.8822315  62.9835610   4.1145135  55.0505098
  74.7951105   3.8748441  67.4905575  74.5035913   4.2378421  68.3269036
  74.1823236   3.1615449  67.3118907  59.9321800   0.1605223  55.5416711
  59.6867842  -0.7432447  55.7396922  60.1017714   0.1622373  54.5996189
  65.6764572   6.6288175  52.0067390  65.1038539   7.2478363  51.5537862
  66.2497366   7.1787537  52.5407312  68.8961832   6.9125325  53.1375972
  69.8292505   6.8470887  53.3408848  68.8085045   7.7481592  52.6790505
  71.5249849   6.2291196  50.0979920  71.4463480   5.8951059  50.9915678
  72.3459515   6.7212964  50.0971392  65.9450063   2.0166734  70.8084099
  66.8653073   2.1945333  71.0024146  65.9099646   1.0722780  70.6563799
  55.1632228  -2.7894672  59.7337374  54.8435013  -3.6429364  59.4411748
  54.6165656  -2.5746094  60.4895341  58.9412136  -0.0732231  63.4506881
  59.1598146   0.8584877  63.4694914  59.3537910  -0.4324257  64.2361684
  55.0320488   0.8308239  61.7030496  54.3383960   0.4162192  61.1900450
  55.7793479   0.8728776  61.1063915  63.6771271  -1.0701886  71.6574691
  63.1938353  -0.2701526  71.8638580  63.7632210  -1.0593942  70.7042135
  56.9457231   0.7626493  59.5796511  56.9227919   0.8614180  58.6278394
  57.2557867   1.6091644  59.9013677  59.6044609   2.8202648  63.6943125
  60.5587862   2.7886591  63.6273057  59.4057132   2.3593272  64.5093351
  60.1943991   1.3903764  66.2613923  61.0136880   1.8847843  66.2848760
  60.4680798   0.4735732  66.2331490  57.9594837   8.3622268  60.7113323
  57.8249305   7.6022669  60.1451321  57.5426900   9.0863168  60.2442112
  69.0953800   3.5459191  49.7189898  69.7989651   3.7509194  50.3347554
  68.3716449   4.1135953  49.9838982  61.1163963   9.2591585  60.9231766
  60.9996347  10.2037017  60.8210456  60.2956410   8.9565146  61.3117565
  71.0040498   3.9841720  51.7688358  71.8386102   3.5522919  51.5865833
  70.8424841   3.8123734  52.6965253  67.9732297   2.7922746  72.4598260
  68.8423457   2.9663398  72.0984895  67.4939049   3.6117162  72.3373990
  62.1418477   9.9119847  64.1387694  63.0445724   9.9443457  64.4554189
  61.9155847   8.9820298  64.1534030  63.8972079   8.6650833  60.7997773
  62.9467710   8.6652695  60.6862145  64.2004566   7.9183568  60.2833807
  79.6324773  14.5011372  61.8643535  80.2703183  14.3818119  61.1606875
  79.5145616  15.4492216  61.9231487  76.4414479  14.4538800  61.8005060
  76.1032991  14.3379864  60.9125595  77.3104247  14.0529965  61.7806066
  72.3001295  16.3074276  57.7901951  71.7366160  16.2164213  57.0218238
  72.1853690  15.4874181  58.2704443  76.9234262  15.6073651  67.7591265
  76.9122903  15.2126450  66.8871769  77.0854902  14.8739724  68.3525037
  69.8465727  17.8025468  60.6286171  70.6387019  17.4616292  60.2132470
  70.0862377  17.9120443  61.5488324  77.8800854  19.9745244  53.1016416
  77.2288833  20.5599324  52.7150429  78.6745216  20.5051439  53.1611453
  71.8056481  17.0634381  53.5003550  72.5787357  16.5163368  53.3616426
  72.1581880  17.9278630  53.7118011  73.6441523  18.3910763  66.7070449
  73.3531389  19.2956394  66.5917115  74.2798508  18.4327291  67.4214519
  74.5697730  15.7687612  63.2971809  75.1661302  15.5443634  62.5828772
  74.6272702  15.0272357  63.8997257  74.1422759  13.2227047  51.1322000
  74.3948279  12.7008568  50.3705463  73.2047318  13.0593192  51.2348683
  79.1866041  12.2262825  58.9396743  79.9729131  11.8082249  58.5887160
  79.4504746  13.1308918  59.1078391  79.3576119  17.6635676  53.6385400
  78.7221952  17.7370302  54.3506304  79.0273525  18.2529275  52.9604479
  84.5874469  12.1638059  59.8429722  85.3199640  11.5937275  60.0767551
  83.8313824  11.7759659  60.2836227  73.8619047  15.1255153  53.3346375
  73.7455305  14.4500056  54.0027459  73.9721307  14.6387527  52.5178528
  76.2050588  14.5865300  57.0393064  75.8408795  14.0595921  57.7505985
  77.0617704  14.1963769  56.8659549  82.1099889   5.8759633  64.3024330
  81.7783214   6.7455044  64.0785545  81.5145502   5.5595917  64.9818361
  75.8456075   9.6155200  52.0354412  76.0130478  10.4835436  52.4024884
  75.6553244   9.7782481  51.1115702  78.6031408  18.0772179  63.7020243
  78.3032131  18.9797218  63.5936050  78.2582468  17.8104362  64.5541396
  72.0543890  14.5285976  59.7356947  71.1294386  14.3962190  59.9434639
  72.3028303  15.3080195  60.2326890  82.0028552  10.5954719  61.3817680
  81.0945430  10.5270127  61.0876441  81.9516148  11.0726664  62.2099506
  75.8245296  12.0712857  53.0201079  75.7044921  12.5169908  53.8586560
  75.1297884  12.4198175  52.4614617  69.4152701  14.1719249  60.5700736
  69.5445082  14.4253728  61.4840148  68.7350152  14.7646957  60.2505391
  73.5852188  24.8416499  56.6691211  73.5076218  25.7924324  56.7479691
  72.9813832  24.4962372  57.3266137  76.0769418  12.0144364  69.3252577
  75.3002752  12.5738285  69.3155442  76.7159981  12.5001147  69.8467448
  83.8690199   8.7971157  63.1595554  83.2264579   9.0903690  62.5135349
  83.3645127   8.6824078  63.9648751  81.5230362  12.5434330  53.8481413
  82.4348218  12.7761717  53.6729111  81.0140009  13.1271375  53.2856492
  74.3315790  14.8229818  68.8870544  75.0730475  15.3614862  68.6105368
  73.6252776  15.4496107  69.0442096  79.8071130  16.9658958  67.4842706
  80.2154486  16.5241369  66.7397338  79.0848391  16.3911586  67.7376899
  76.1602200  11.9031565  64.8576263  77.0063395  12.3270979  65.0010912
  76.1000838  11.2465189  65.5514826  80.1299945  17.5260149  61.2394995
  79.5008807  17.6905863  60.5371063  79.7425607  17.9401758  62.0105959
  84.0089176  18.4614587  58.5939359  83.3240215  18.8413488  58.0436392
  84.0933026  19.0709913  59.3271306  79.3101645   9.5635933  66.5157437
  79.0662577  10.3177994  65.9791712  79.5861576   9.9421281  67.3504684
  81.2640108  16.1074546  65.1934702  81.4757003  16.7506306  64.5169083
  81.2169856  15.2736862  64.7256632  78.8666337   8.7192366  62.0971274
  78.0050816   9.0173620  62.3888012  78.8928772   8.9362765  61.1652307
  75.6827906  17.2634557  58.5045080  76.1466252  17.5422260  57.7149702
  75.4184705  16.3618002  58.3218171  72.5751988  16.8106039  61.4424843
  73.1453345  17.2393307  60.8042328  73.1660099  16.5288623  62.1409029
  74.6196793  13.3857709  55.3134645  75.3220836  13.8378753  55.7808571
  74.2877421  12.7441528  55.9414538  73.0677154  11.9769466  69.6885854
  72.4375815  12.6585747  69.9221251  72.9613242  11.8652548  68.7438993
  68.3622126  11.6441262  60.6151779  67.5721180  11.8998791  60.1391889
  68.8533374  12.4589600  60.7203819  82.3785936  18.9846501  63.3657059
  83.2003380  18.5826688  63.0839741  82.3748339  18.8814735  64.3173175
  70.3136872  12.0085841  57.5735255  69.5168035  12.1204536  58.0918751
  70.0862464  12.3472494  56.7076146  76.1442539  18.5330545  65.5217770
  76.2086972  18.9950952  66.3575942  75.4353463  17.9027909  65.6500080
  66.6459829  11.8971752  63.0466769  66.8967868  12.7818762  63.3124345
  67.1819378  11.7176354  62.2741861  90.4691929  15.3285250  59.7142031
  89.7155637  14.7592648  59.5586035  90.6039470  15.2947914  60.6612666
  75.8590557  20.1998652  55.3896750  75.7236232  21.0450188  55.8181598
  76.4000370  20.4017930  54.6262684  72.3457897   6.2790232  72.0511105
  71.9524842   5.7256430  72.7258750  73.1624037   6.5900810  72.4417623
  69.3119955  17.7174090  55.9624675  69.8244475  18.5117340  56.1130240
  69.9642667  17.0200380  55.8958277  71.1214839  20.8339846  58.0447429
  71.2981468  21.7557811  57.8568412  71.9171673  20.5198266  58.4741808
  75.2625858   7.6948111  69.6431362  76.0035571   8.2955264  69.5635825
  75.4943781   6.9525749  69.0849405  70.4067196  12.8804478  67.9209592
  70.2920711  11.9789735  68.2216691  69.5511714  13.1268175  67.5694408
  77.4859034  20.8222219  69.5197092  77.0422888  20.0358597  69.2017997
  78.1476247  21.0101369  68.8540983  72.2446155  22.3518020  64.0457771
  72.7953580  22.2235083  63.2734765  71.4057631  22.6512909  63.6952664
  79.5840272  21.1025018  67.5478494  79.5658747  21.9233899  67.0558763
  80.5060192  20.9779094  67.7728635  76.0413326  18.6169148  68.3902002
  76.5741663  17.8557436  68.1601310  75.5127407  18.3242800  69.1326156
  67.2768871  16.0462744  56.7384246  68.1144093  16.4559753  56.5217954
  67.4547139  15.1062187  56.7084440  79.1733303  13.7137825  52.4268079
  78.6579927  14.4842430  52.6656466  78.9010612  13.0402961  53.0501140
  76.7580414   8.5587526  57.4853317  75.9022011   8.1694376  57.3058956
  77.1707366   8.6379487  56.6253103  78.2879561   6.0933869  61.8844877
  77.7844357   6.0564004  61.0712682  78.5810168   7.0026612  61.9441534
  74.5322447   6.1772599  60.8911059  75.3975444   5.9815407  60.5316948
  74.5999956   5.9482951  61.8180415  84.1467578  16.4670180  54.3621252
  83.3697020  16.1281339  53.9176414  84.8259059  16.4722803  53.6876217
  78.9619607  11.5864917  54.2527860  78.6569742  11.9011066  55.1038003
  79.9150049  11.6646337  54.2955193  77.4066038  17.7455140  55.9020814
  76.8787400  17.0107900  55.5894051  76.9053541  18.5229817  55.6560782
  82.3858884  15.9404161  61.0187860  81.7282559  16.6303422  61.1067989
  83.1899284  16.3300593  61.3621847  72.1384766   8.4074807  58.2627426
  72.7128518   8.1849988  57.5300618  72.7255748   8.4763501  59.0156027
  81.1964343  14.2948534  59.0691802  81.7096225  14.9278525  59.5713512
  81.8465567  13.6949729  58.7035162  72.4654353  10.4379268  52.2823311
  71.6291665  10.7753954  52.6032586  72.3259123  10.3028248  51.3450448
  74.4407434   5.2816056  56.9902495  73.7871846   4.9665073  56.3659110
  74.3987908   4.6591796  57.7162318  75.5518639  15.5635351  48.9055787
  74.6445700  15.3324604  49.1046936  76.0489671  14.7672970  49.0929769
  78.4586717  24.2732858  51.8252473  77.7848416  24.5764555  52.4337431
  78.8452539  25.0761938  51.4757930  77.6745174  11.7697989  61.3150143
  76.7567735  11.9912936  61.1571831  78.0905318  11.8444300  60.4561850
  78.4580222  13.1689405  56.4452823  79.2052041  13.6810802  56.1359945
  78.7271811  12.8473458  57.3057216  76.7306872  15.6647946  53.4279777
  75.8218091  15.3806978  53.5252247  76.7601956  16.0847024  52.5683084
  81.9626139  19.2754535  57.1970945  81.5088467  18.4345445  57.2536135
  81.3320106  19.9115933  57.5345725  80.9059059  10.2046521  58.4271612
  80.1681816   9.6923907  58.7581855  81.1585833   9.7646903  57.6154889
  80.4059079  21.1131032  58.1320763  80.6982053  21.6736089  57.4133128
  80.9157699  21.4059593  58.8873922  67.2995042  13.3853460  57.4094979
  67.1019442  12.7922820  56.6846046  66.7441706  13.0805670  58.1270918
  75.2791766  13.2776566  59.5289572  75.3340376  12.3250403  59.4532049
  74.4682968  13.4336005  60.0130871  76.4282960  17.2056689  50.7667856
  75.9902390  16.4892548  50.3073493  77.1693401  17.4332804  50.2052947
  73.2184126  11.8953626  57.2879951  72.4051992  12.1947796  57.6945143
  73.7143120  11.5009315  58.0054434  75.3692704  21.8911383  59.2214216
  75.3268883  22.1172229  58.2922748  76.2855403  21.6574757  59.3700017
  78.8158338  12.3595450  66.1194845  79.1707725  12.5866923  66.9789311
  79.4630469  12.6913827  65.4972101  84.5456075  15.4813886  56.8244174
  84.4073973  15.6715482  55.8965363  84.1892293  16.2433269  57.2812225
  72.7098201   9.4671981  62.9041186  73.3497580   9.3260741  62.2064150
  71.8775731   9.1806495  62.5279788  84.5725454  17.5490413  61.8355446
  85.0061961  17.4565702  62.6838500  85.2857035  17.5247914  61.1975462
  73.4858505  18.7674412  59.0176179  74.2799103  18.2724732  58.8158754
  72.7750197  18.2392275  58.6543884  78.3053349  21.1492507  63.3688546
  78.3590371  21.7183444  64.1366262  77.4368131  21.3194392  63.0042584
  69.7941268  12.9117494  55.0935931  68.8638856  12.8501949  55.3105894
  69.8898740  12.3893446  54.2972573  69.7126817   9.4372306  57.6814173
  69.9733634  10.3517640  57.5723334  70.5343990   8.9696749  57.8310786
  71.1851743  10.8510064  64.8512998  71.8574796  10.6427426  64.2025647
  70.3581529  10.6532150  64.4118230  85.4341004  17.5914114  64.3688331
  85.6276894  18.4959924  64.6147606  85.3341622  17.1321533  65.2026916
  77.0877315   7.4772004  66.8678659  76.4405230   8.1761954  66.7743135
  77.8578330   7.9108148  67.2354907  80.4956112  17.7420857  69.9429212
  80.3441619  17.5131408  69.0259295  80.4860792  18.6991458  69.9560557
  77.2641449  15.3152769  64.9275478  78.1933509  15.4663929  64.7544446
  76.8432479  15.4036790  64.0724125  76.0629781  19.3403434  62.6974016
  75.9240866  18.9722218  63.5699954  75.2744377  19.8551073  62.5257974
  76.6577933  24.4412530  54.0399552  76.8329688  23.9700573  54.8545175
  75.9710721  25.0678296  54.2680813  77.6134996  18.7185037  60.0862854
  77.2784828  18.6785806  60.9820504  77.1138941  18.0529752  59.6133264
  71.5879240  14.1252667  65.6115435  71.4499038  13.3932905  66.2126974
  72.4984163  14.0361567  65.3299623  80.5494187  16.0641071  50.3599913
  79.9323358  15.3387899  50.2632966  80.0810676  16.8250431  50.0166988
  74.2161540  13.8372626  65.0999114  74.9261159  13.1965818  65.0585733
  74.1730849  14.0885521  66.0225295  82.2048319  20.7739979  68.0205694
  82.1460865  20.0899199  67.3536277  82.6067838  21.5158969  67.5686320
  72.9290474  10.8237844  66.9194754  72.3927831  10.3728582  67.5716350
  72.3407183  10.9583753  66.1765218  71.2239018  27.5901893  60.8139413
  71.4635616  28.2220417  61.4918431  70.3808214  27.2389933  61.1004772
  72.3392733  10.2826495  49.4821218  71.4622200  10.1615296  49.1183464
  72.8150486   9.4912573  49.2300106  82.2065726  18.7379563  66.2519673
  81.3192505  18.4005485  66.3746072  82.7764277  18.0062594  66.4888439
  63.8594874  15.0703655  59.5762725  64.5465913  14.7565385  58.9883740
  63.7043002  15.9745020  59.3029976  68.6629596   9.9593851  64.0047748
  68.5787784   9.3519521  63.2698158  67.8412302  10.4502870  64.0057245
  75.7366880  23.3981015  63.2180917  75.6637051  24.2035987  63.7300221
  75.2944273  23.5972981  62.3928938  75.5256659  22.6352786  56.7283738
  74.7424181  23.1774466  56.8221963  76.2249405  23.1526765  57.1277979
  78.8353310   8.4447415  59.3717943  79.3322009   7.6917377  59.0519014
  78.0640291   8.4811732  58.8061153  86.6883067  14.1487781  61.0136235
  86.6772943  15.0312496  60.6430168  85.8200446  13.7959331  60.8190772
  78.1965563  23.2967850  65.3739075  78.9093536  23.9315314  65.3014977
  77.7055592  23.3931716  64.5579077  79.9183090  17.2019102  56.9456367
  78.9839369  17.3220565  56.7761071  80.0959759  16.2991569  56.6816377
  75.4188278  10.5864798  59.0989628  75.0486066  10.0335838  59.7870534
  75.9147371   9.9822931  58.5464628  83.3055642  13.0436421  57.4806401
  83.7716094  13.8764413  57.4066704  83.7563142  12.5781403  58.1851660
  73.2477477  21.0462293  66.1944646  73.9486936  21.6798776  66.3474040
  72.7772592  21.3877025  65.4340285  81.3731873  19.3880243  54.4792553
  81.6491717  19.2736837  55.3886427  80.5036371  18.9897728  54.4404726
  81.2772304   5.4117008  61.5197302  80.3635384   5.6421235  61.6879509
  81.7065406   5.4955453  62.3711335  81.0478763  13.6006900  64.0197196
  80.3950213  13.8482808  63.3649649  81.4259143  12.7871039  63.6859674
  78.0085937  23.6366594  58.1225367  78.1908331  22.8188250  58.5853119
  78.8318923  23.8534286  57.6850257  78.3428102  22.5634779  55.3840415
  78.8715869  22.0527233  54.7710577  78.6056322  22.2477309  56.2485948
  77.0966336  14.3426711  70.5063233  76.4206973  14.2420841  71.1765609
  77.9193970  14.1865925  70.9699231  68.8445195  20.5798648  63.1275749
  69.4298632  19.8342336  63.2603653  68.6470033  20.8902605  64.0112413
  71.6983850  23.6149895  58.1438191  71.0294225  24.0996023  57.6602231
  71.5596720  23.8619116  59.0581570  75.8389119  25.6493639  64.7420849
  76.3907427  25.8125260  65.5069935  76.1795312  26.2398077  64.0700874
  70.8153612   7.9968789  65.3442734  70.8794938   8.8583620  64.9320132
  70.7520732   7.3842790  64.6115093  70.2905884  10.0691921  68.9915768
  70.9177923   9.6868999  69.6053293  69.4333803   9.8506123  69.3571461
  80.6899993  20.4754896  70.5969504  81.2339897  21.0884855  70.1024459
  80.1086838  21.0334475  71.1136517  67.0671427  11.8768350  54.9234123
  67.3624868  10.9679029  54.8701177  66.1659463  11.8556090  54.6015126
  78.9757506  23.5975614  61.7284532  78.8508645  22.7965354  61.2195477
  79.6336597  24.0921808  61.2398502  70.5965674   9.9524347  60.9061672
  69.8752260  10.5660315  60.7669145  71.3858930  10.4882112  60.8278318
  81.0392414  21.3984635  63.3564082  80.0922750  21.2789986  63.2842408
  81.3875187  20.5107133  63.4390343  73.3991988   7.2878773  67.1802324
  73.9226390   7.5341070  67.9428633  73.1804321   8.1198808  66.7605461
  68.7959269   9.5582448  55.0473448  68.4671975   8.6779827  54.8648554
  69.1498639   9.5030117  55.9349838  78.0438848  21.1937351  59.5568434
  77.8963810  20.2654058  59.7376004  78.8692341  21.2157441  59.0725509
  71.9101092   9.8455418  55.4148926  72.2497164  10.3741339  54.6927534
  72.3573212  10.1835824  56.1907493  81.6472970  22.0165909  60.6433307
  82.5719517  21.8108771  60.5057758  81.4788273  21.7682311  61.5522648
  74.6044533   8.2292469  64.8651994  74.2641353   7.4300282  65.2672674
  73.8983539   8.5294179  64.2928827  75.2561005   5.3141781  63.3179317
  76.0787074   4.8402259  63.1958207  75.4999068   6.0932265  63.8178003
  73.8969239   8.3430039  53.6142219  74.6177602   8.7211292  53.1105936
  73.2734543   9.0618916  53.7177197  78.0400362   9.0475188  54.5500551
  78.2563976   9.9299826  54.2489379  77.5594429   8.6561402  53.8206193
  72.7799583  12.0060902  61.1271296  72.6344164  12.3201205  62.0195577
  72.3024787  12.6245802  60.5742194  74.6395966   8.9963450  61.1752185
  74.6257535   8.1004543  60.8384483  75.3568394   9.0034113  61.8090471
  76.4922097   9.4300790  63.2205313  76.2339875  10.3517860  63.2189643
  75.9607137   9.0331224  63.9105777  81.4368286  22.5351577  55.9995398
  81.6105163  21.9697999  55.2469251  81.9297177  23.3352472  55.8174888
  67.2545246  14.5466246  64.0658957  66.7098714  15.3226054  64.1979231
  68.1324595  14.8937051  63.9078078  74.0432862   7.8777830  56.4439755
  74.1648773   6.9494476  56.6430643  73.7534905   7.8916516  55.5318071
  76.9124053   5.5632740  59.5806475  76.9345749   5.6272073  58.6258455
  77.3292112   4.7237249  59.7746981  87.2907677  15.2988000  57.6185698
  87.7338823  14.5495325  57.2204821  86.4134187  15.2898136  57.2359430
  82.4243458  21.8518341  53.0992296  83.1194363  22.4725034  53.3179611
  82.7666608  21.0013693  53.3744674  68.0411267  13.6736142  66.9589114
  67.2993003  13.8218778  67.5453744  67.7204012  13.9344408  66.0955863
  84.3234881  19.3018047  54.6279627  84.8486205  19.6405320  53.9028947
  84.2357234  18.3665062  54.4442762  75.9854930  23.2152121  66.7569504
  76.2942056  22.9701267  67.6292203  76.7830412  23.4198759  66.2688374
  76.0075542  25.3690030  58.9874880  75.5680532  24.8766409  59.6807737
  76.7583659  24.8262998  58.7466956  68.4867881  21.5601571  58.9899508
  69.3125901  21.2605343  58.6098152  68.1361933  20.7909193  59.4389297
  73.4549414  20.9128039  61.0597182  72.8329424  20.2498744  60.7599410
  74.1254281  20.9389171  60.3770830  66.6876486  19.4787897  59.9488442
  65.8508394  19.0510072  59.7672443  66.6600132  19.6720341  60.8859233
  73.5273942   9.3909827  70.6529688  73.5762097  10.2671950  70.2707458
  74.0696456   8.8487220  70.0801331  84.0128787  19.9350951  69.9330825
  83.2224331  19.9175089  69.3935325  83.7762142  20.4739244  70.6879862
  84.1326662  16.7843417  67.2463554  84.1824667  16.6193424  68.1879076
  84.0240586  15.9170676  66.8561434  73.0162921  19.4631963  54.5355643
  73.1651042  20.1467427  53.8822315  73.8229365  19.4437053  55.0505098
  81.4230425  12.7674345  68.5622860  82.3240288  12.6280810  68.2706858
  81.4978399  12.9328800  69.5021038  75.7573230  10.1441200  67.4076047
  74.8876540  10.4374766  67.1358635  75.9932711  10.7281645  68.1283310
  85.6344859  19.2040358  67.4905575  85.3429668  19.5670339  68.3269036
  85.0216991  18.4907367  67.3118907  86.8340542  16.7693238  60.0108145
  87.6687433  17.2083042  60.1745706  86.9699670  16.2931891  59.1916391
  83.8832048  14.3272973  65.9585633  84.3586169  14.5200619  65.1504485
  82.9597613  14.3832159  65.7129017  70.7715554  15.4897140  55.5416711
  70.5261596  14.5859470  55.7396922  70.9411469  15.4914291  54.5996189
  78.4612264   6.3620817  64.9241467  78.9794208   7.0981844  64.5987956
  78.1067397   6.6684810  65.7588226  70.0411202  11.2225498  53.0402873
  69.3480447  11.2969853  52.3842909  69.7962954  10.4585841  53.5624390
  76.5158327  21.9580093  52.0067390  75.9432294  22.5770280  51.5537862
  77.0891120  22.5079455  52.5407312  82.5833717  11.2038733  64.1913939
  83.5351139  11.3036831  64.2126163  82.4137167  10.4117002  64.7012023
  80.6048096   8.2894316  64.3773340  80.0098028   8.5699329  63.6819828
  80.3197793   8.7788217  65.1490081  79.7355586  22.2417243  53.1375972
  80.6686260  22.1762805  53.3408848  79.6478799  23.0773510  52.6790505
  82.3643603  21.5583114  50.0979920  82.2857235  21.2242977  50.9915678
  83.1853270  22.0504881  50.0971392  85.0621794  14.4244853  63.3056238
  85.0298114  13.4860854  63.4915922  85.6722418  14.5028890  62.5722063
  76.9005125  13.2940906  49.3483442  77.8464230  13.1647114  49.4171861
  76.5219370  12.5555568  49.8252871  85.2116283  11.2155896  63.3514522
  84.6955331  10.4314353  63.1644450  86.0956231  10.8874613  63.5161041
  90.8798344  15.4860860  62.4462275  91.6101733  15.2246148  63.0069979
  90.2705290  14.7489582  62.4864343  88.9613641  13.6268722  63.0436726
  88.2346805  13.4924687  62.4353218  88.5460928  13.9345551  63.8493444
  76.7843818  17.3458652  70.8084099  77.7046827  17.5237251  71.0024146
  76.7493401  16.4014697  70.6563799  75.0848042  11.2190882  49.2838328
  74.1779498  10.9223995  49.3601041  75.3624023  10.9220700  48.4172614
  66.0025983  12.5397246  59.7337374  65.6828767  11.6862554  59.4411748
  65.4559411  12.7545824  60.4895341  69.7805890  15.2559687  63.4506881
  69.9991900  16.1876794  63.4694914  70.1931664  14.8967661  64.2361684
  76.7010108   5.7627772  55.4382569  75.8910836   5.4174857  55.8137815
  77.3894525   5.4535316  56.0270181  78.6300656   4.8405819  57.0606866
  79.1831695   5.2601272  57.7196889  78.8670743   3.9141567  57.1029822
  74.6533756  10.8292892  72.8409630  74.5530482  11.7787249  72.7721721
  74.4355298  10.5011131  71.9685700  73.8546827   8.0777817  49.4250307
  74.7165991   8.4032716  49.6846124  74.0397171   7.2909313  48.9123373
  65.8714243  16.1600157  61.7030496  65.1777714  15.7454110  61.1900450
  66.6187234  16.2020694  61.1063915  82.0079463   6.9506344  56.5685530
  81.4278132   7.6091148  56.1863582  81.7415396   6.1283688  56.1572947
  80.4583030   6.3511402  58.7706850  80.9582808   6.4627936  57.9621169
  81.1018638   6.0472454  59.4107659  74.5165026  14.2590031  71.6574691
  74.0332107  15.0590391  71.8638580  74.6025965  14.2697976  70.7042135
  67.7850985  16.0918411  59.5796511  67.7621673  16.1906098  58.6278394
  68.0951622  16.9383562  59.9013677  70.4438363  18.1494566  63.6943125
  71.3981617  18.1178508  63.6273057  70.2450887  17.6885190  64.5093351
  71.0337745  16.7195682  66.2613923  71.8530634  17.2139761  66.2848760
  71.3074553  15.8027650  66.2331490  80.7904341   9.1106434  55.6241878
  79.9030196   9.3956085  55.4062073  81.2058331   8.9500198  54.7769155
  84.1418878   9.1352955  59.3396217  84.9179268   9.6249408  59.6120834
  83.4167012   9.5611009  59.7968087  86.5791436   9.8480574  60.3970158
  87.1735927   9.6076310  59.6863466  86.6518020   9.1287705  61.0243694
  68.7988592  23.6914185  60.7113323  68.6643060  22.9314586  60.1451321
  68.3820654  24.4155085  60.2442112  79.9347555  18.8751109  49.7189898
  80.6383405  19.0801111  50.3347554  79.2110204  19.4427871  49.9838982
  80.7645365  14.6260970  55.8392168  80.7080567  15.0829522  54.9999801
  81.3173708  13.8651655  55.6615011  84.5750171  10.4150702  56.6642288
  84.3187105  10.0147338  57.4950496  83.9503039  11.1294496  56.5392427
  88.8862509  13.1546775  59.1713579  88.3262067  13.2239965  59.9445141
  88.2806012  12.9787760  58.4513075  71.9557718  24.5883502  60.9231766
  71.8390102  25.5328935  60.8210456  71.1350164  24.2857064  61.3117565
  81.8434252  19.3133638  51.7688358  82.6779856  18.8814837  51.5865833
  81.6818595  19.1415652  52.6965253  81.4980144  15.8165751  53.1344698
  81.4428948  15.6510023  52.1933142  80.8726200  16.5241784  53.2906887
  66.2872659  11.0533816  66.9606120  66.9331523  10.5432770  67.4493345
  66.0789811  11.7902497  67.5349545  78.8126052  18.1214663  72.4598260
  79.6817211  18.2955316  72.0984895  78.3332803  18.9409080  72.3373990
  74.8076270   5.3173860  52.7130016  74.7954940   6.2615700  52.8698287
  75.6999692   5.1344006  52.4189477  72.9812232  25.2411764  64.1387694
  73.8839479  25.2735375  64.4554189  72.7549602  24.3112215  64.1534030
  74.7365834  23.9942751  60.7997773  73.7861465  23.9944612  60.6862145
  75.0398320  23.2475485  60.2833807  70.6270150   8.2001433  71.0581134
  71.4901612   7.8438238  71.2684459  70.0535561   7.8615328  71.7456538
  90.4718527  29.8303289  61.8643535  91.1096937  29.7110037  61.1606875
  90.3539370  30.7784133  61.9231487  87.2808234  29.7830717  61.8005060
  86.9426745  29.6671782  60.9125595  88.1498002  29.3821882  61.7806066
  83.1395049  31.6366194  57.7901951  82.5759915  31.5456131  57.0218238
  83.0247444  30.8166098  58.2704443  87.7628017  30.9365569  67.7591265
  87.7516657  30.5418367  66.8871769  87.9248656  30.2031642  68.3525037
  88.7194608  35.3037161  53.1016416  88.0682588  35.8891242  52.7150429
  89.5138971  35.8343356  53.1611453  82.6450235  32.3926299  53.5003550
  83.4181111  31.8455286  53.3616426  82.9975634  33.2570548  53.7118011
  84.9816513  28.5518965  51.1322000  85.2342034  28.0300486  50.3705463
  84.0441072  28.3885110  51.2348683  90.0259796  27.5554743  58.9396743
  90.8122885  27.1374166  58.5887160  90.2898500  28.4600835  59.1078391
  90.1969873  32.9927593  53.6385400  89.5615706  33.0662220  54.3506304
  89.8667280  33.5821192  52.9604479  95.4268223  27.4929976  59.8429722
  96.1593395  26.9229193  60.0767551  94.6707579  27.1051577  60.2836227
  84.7012802  30.4547071  53.3346375  84.5849060  29.7791974  54.0027459
  84.8115062  29.9679445  52.5178528  87.0444343  29.9157218  57.0393064
  86.6802550  29.3887839  57.7505985  87.9011459  29.5255687  56.8659549
  92.9493643  21.2051550  64.3024330  92.6176968  22.0746961  64.0785545
  92.3539257  20.8887834  64.9818361  86.6849830  24.9447117  52.0354412
  86.8524232  25.8127354  52.4024884  86.4946999  25.1074399  51.1115702
  89.4425163  33.4064096  63.7020243  89.1425886  34.3089135  63.5936050
  89.0976222  33.1396280  64.5541396  82.8937644  29.8577893  59.7356947
  81.9688141  29.7254107  59.9434639  83.1422058  30.6372112  60.2326890
  92.8422307  25.9246637  61.3817680  91.9339184  25.8562045  61.0876441
  92.7909902  26.4018581  62.2099506  86.6639051  27.4004775  53.0201079
  86.5438676  27.8461826  53.8586560  85.9691639  27.7490093  52.4614617
  80.2546455  29.5011167  60.5700736  80.3838837  29.7545646  61.4840148
  79.5743907  30.0938875  60.2505391  84.4245943  40.1708417  56.6691211
  84.3469972  41.1216242  56.7479691  83.8207586  39.8254289  57.3266137
  86.9163172  27.3436282  69.3252577  86.1396507  27.9030202  69.3155442
  87.5553736  27.8293065  69.8467448  94.7083953  24.1263075  63.1595554
  94.0658333  24.4195608  62.5135349  94.2038882  24.0115995  63.9648751
  92.3624117  27.8726248  53.8481413  93.2741973  28.1053635  53.6729111
  91.8533764  28.4563292  53.2856492  90.6464884  32.2950876  67.4842706
  91.0548240  31.8533286  66.7397338  89.9242146  31.7203503  67.7376899
  86.9995954  27.2323483  64.8576263  87.8457150  27.6562896  65.0010912
  86.9394592  26.5757107  65.5514826  90.9693699  32.8552067  61.2394995
  90.3402562  33.0197781  60.5371063  90.5819361  33.2693676  62.0105959
  94.8482931  33.7906504  58.5939359  94.1633969  34.1705406  58.0436392
  94.9326780  34.4001831  59.3271306  90.1495400  24.8927851  66.5157437
  89.9056332  25.6469912  65.9791712  90.4255330  25.2713199  67.3504684
  92.1033863  31.4366463  65.1934702  92.3150758  32.0798223  64.5169083
  92.0563611  30.6028780  64.7256632  89.7060092  24.0484284  62.0971274
  88.8444571  24.3465538  62.3888012  89.7322526  24.2654683  61.1652307
  86.5221661  32.5926475  58.5045080  86.9860006  32.8714178  57.7149702
  86.2578459  31.6909919  58.3218171  85.4590547  28.7149627  55.3134645
  86.1614590  29.1670671  55.7808571  85.1271175  28.0733446  55.9414538
  83.9070909  27.3061384  69.6885854  83.2769569  27.9877665  69.9221251
  83.8006996  27.1944465  68.7438993  79.2015881  26.9733180  60.6151779
  78.4114935  27.2290708  60.1391889  79.6927128  27.7881518  60.7203819
  93.2179691  34.3138419  63.3657059  94.0397134  33.9118606  63.0839741
  93.2142093  34.2106653  64.3173175  81.1530626  27.3377759  57.5735255
  80.3561790  27.4496453  58.0918751  80.9256219  27.6764411  56.7076146
  77.4853584  27.2263670  63.0466769  77.7361622  28.1110680  63.3124345
  78.0213132  27.0468272  62.2741861 101.3085684  30.6577167  59.7142031
 100.5549392  30.0884565  59.5586035 101.4433225  30.6239832  60.6612666
  86.6984312  35.5290570  55.3896750  86.5629986  36.3742105  55.8181598
  87.2394124  35.7309847  54.6262684  83.1851651  21.6082150  72.0511105
  82.7918597  21.0548348  72.7258750  84.0017792  21.9192728  72.4417623
  80.1513709  33.0466008  55.9624675  80.6638230  33.8409258  56.1130240
  80.8036422  32.3492298  55.8958277  86.1019612  23.0240029  69.6431362
  86.8429326  23.6247182  69.5635825  86.3337535  22.2817666  69.0849405
  81.2460950  28.2096396  67.9209592  81.1314465  27.3081653  68.2216691
  80.3905468  28.4560093  67.5694408  90.4234026  36.4316936  67.5478494
  90.4052501  37.2525817  67.0558763  91.3453946  36.3071011  67.7728635
  90.0476775  19.0521132  63.9195644  89.7041045  19.9422773  63.8434754
  90.4155738  18.8622789  63.0565229  78.1162626  31.3754662  56.7384246
  78.9537848  31.7851670  56.5217954  78.2940893  30.4354104  56.7084440
  90.0127058  29.0429743  52.4268079  89.4973681  29.8134347  52.6656466
  89.7404366  28.3694879  53.0501140  87.5974169  23.8879443  57.4853317
  86.7415765  23.4986294  57.3058956  88.0101121  23.9671404  56.6253103
  89.1273316  21.4225787  61.8844877  88.6238111  21.3855922  61.0712682
  89.4203922  22.3318529  61.9441534  85.3716201  21.5064516  60.8911059
  86.2369198  21.3107325  60.5316948  85.4393710  21.2774868  61.8180415
  94.9861332  31.7962097  54.3621252  94.2090775  31.4573257  53.9176414
  95.6652813  31.8014720  53.6876217  89.8013361  26.9156835  54.2527860
  89.4963497  27.2302984  55.1038003  90.7543803  26.9938255  54.2955193
  88.2459793  33.0747058  55.9020814  87.7181154  32.3399818  55.5894051
  87.7447296  33.8521734  55.6560782  93.2252639  31.2696079  61.0187860
  92.5676313  31.9595340  61.1067989  94.0293038  31.6592511  61.3621847
  82.9778521  23.7366724  58.2627426  83.5522272  23.5141906  57.5300618
  83.5649503  23.8055419  59.0156027  92.0358098  29.6240451  59.0691802
  92.5489979  30.2570443  59.5713512  92.6859322  29.0241647  58.7035162
  83.3048108  25.7671185  52.2823311  82.4685420  26.1045872  52.6032586
  83.1652877  25.6320165  51.3450448  85.2801188  20.6107973  56.9902495
  84.6265601  20.2956990  56.3659110  85.2381662  19.9883714  57.7162318
  86.3912393  30.8927268  48.9055787  85.4839455  30.6616522  49.1046936
  86.8883425  30.0964888  49.0929769  89.2980472  39.6024776  51.8252473
  88.6242171  39.9056472  52.4337431  89.6846294  40.4053856  51.4757930
  88.5138929  27.0989907  61.3150143  87.5961490  27.3204854  61.1571831
  88.9299072  27.1736217  60.4561850  89.2973976  28.4981322  56.4452823
  90.0445795  29.0102720  56.1359945  89.5665566  28.1765375  57.3057216
  87.5700627  30.9939863  53.4279777  86.6611846  30.7098896  53.5252247
  87.5995710  31.4138942  52.5683084  92.8019894  34.6046453  57.1970945
  92.3482221  33.7637363  57.2536135  92.1713861  35.2407851  57.5345725
  91.7452814  25.5338439  58.4271612  91.0075570  25.0215825  58.7581855
  91.9979587  25.0938820  57.6154889  91.2452833  36.4422949  58.1320763
  91.5375808  37.0028007  57.4133128  91.7551454  36.7351510  58.8873922
  91.8464441  18.3114691  59.0213381  92.1523318  17.4512054  58.7339296
  92.5717046  18.9032311  58.8212375  78.1388797  28.7145377  57.4094979
  77.9413197  28.1214738  56.6846046  77.5835461  28.4097588  58.1270918
  86.1185521  28.6068484  59.5289572  86.1734130  27.6542320  59.4532049
  85.3076723  28.7627923  60.0130871  87.2676714  32.5348607  50.7667856
  86.8296144  31.8184466  50.3073493  88.0087155  32.7624722  50.2052947
  84.0577881  27.2245544  57.2879951  83.2445746  27.5239714  57.6945143
  84.5536875  26.8301232  58.0054434  89.6552092  27.6887368  66.1194845
  90.0101480  27.9158841  66.9789311  90.3024223  28.0205745  65.4972101
  95.3849829  30.8105804  56.8244174  95.2467728  31.0007400  55.8965363
  95.0286048  31.5725187  57.2812225  83.5491955  24.7963899  62.9041186
  84.1891335  24.6552658  62.2064150  82.7169486  24.5098412  62.5279788
  95.4119209  32.8782331  61.8355446  95.8455715  32.7857620  62.6838500
  96.1250789  32.8539831  61.1975462  89.1447104  36.4784425  63.3688546
  89.1984126  37.0475361  64.1366262  88.2761885  36.6486310  63.0042584
  80.6335023  28.2409411  55.0935931  79.7032611  28.1793867  55.3105894
  80.7292495  27.7185364  54.2972573  80.5520572  24.7664224  57.6814173
  80.8127389  25.6809557  57.5723334  81.3737744  24.2988667  57.8310786
  82.0245497  26.1801981  64.8512998  82.6968550  25.9719343  64.2025647
  81.1975284  25.9824067  64.4118230  96.2734758  32.9206032  64.3688331
  96.4670648  33.8251842  64.6147606  96.1735376  32.4613451  65.2026916
  87.9271069  22.8063922  66.8678659  87.2798984  23.5053872  66.7743135
  88.6972084  23.2400066  67.2354907  91.3349867  33.0712774  69.9429212
  91.1835373  32.8423326  69.0259295  91.3254546  34.0283376  69.9560557
  88.1035203  30.6444687  64.9275478  89.0327263  30.7955847  64.7544446
  87.6826233  30.7328708  64.0724125  87.4971687  39.7704448  54.0399552
  87.6723443  39.2992491  54.8545175  86.8104475  40.3970214  54.2680813
  88.4528750  34.0476954  60.0862854  88.1178583  34.0077724  60.9820504
  87.9532696  33.3821670  59.6133264  82.4272994  29.4544584  65.6115435
  82.2892792  28.7224823  66.2126974  83.3377918  29.3653484  65.3299623
  91.3887942  31.3932989  50.3599913  90.7717113  30.6679817  50.2632966
  90.9204430  32.1542349  50.0166988  85.0555295  29.1664544  65.0999114
  85.7654913  28.5257736  65.0585733  85.0124603  29.4177438  66.0225295
  93.0442074  36.1031897  68.0205694  92.9854620  35.4191117  67.3536277
  93.4461592  36.8450887  67.5686320  83.7684229  26.1529761  66.9194754
  83.2321586  25.7020500  67.5716350  83.1800937  26.2875670  66.1765218
  83.1786488  25.6118413  49.4821218  82.3015954  25.4907214  49.1183464
  83.6544241  24.8204491  49.2300106  93.0459481  34.0671481  66.2519673
  92.1586260  33.7297403  66.3746072  93.6158032  33.3354512  66.4888439
  74.6988628  30.3995573  59.5762725  75.3859668  30.0857303  58.9883740
  74.5436757  31.3036937  59.3029976  79.5023350  25.2885769  64.0047748
  79.4181539  24.6811439  63.2698158  78.6806057  25.7794787  64.0057245
  86.3650414  37.9644703  56.7283738  85.5817936  38.5066383  56.8221963
  87.0643159  38.4818683  57.1277979  89.6747064  23.7739333  59.3717943
  90.1715764  23.0209295  59.0519014  88.9034046  23.8103649  58.8061153
  97.5276821  29.4779698  61.0136235  97.5166698  30.3604414  60.6430168
  96.6594201  29.1251249  60.8190772  90.7576845  32.5311020  56.9456367
  89.8233123  32.6512482  56.7761071  90.9353513  31.6283487  56.6816377
  86.2582033  25.9156716  59.0989628  85.8879820  25.3627756  59.7870534
  86.7541125  25.3114849  58.5464628  94.1449396  28.3728339  57.4806401
  94.6109848  29.2056331  57.4066704  94.5956897  27.9073321  58.1851660
  92.2125627  34.7172160  54.4792553  92.4885471  34.6028755  55.3886427
  91.3430126  34.3189645  54.4404726  92.1166059  20.7408926  61.5197302
  91.2029139  20.9713153  61.6879509  92.5459160  20.8247370  62.3711335
  91.8872517  28.9298818  64.0197196  91.2343968  29.1774726  63.3649649
  92.2652897  28.1162956  63.6859674  88.8479691  38.9658511  58.1225367
  89.0302086  38.1480167  58.5853119  89.6712677  39.1826204  57.6850257
  89.1821857  37.8926696  55.3840415  89.7109623  37.3819151  54.7710577
  89.4450076  37.5769227  56.2485948  87.9360090  29.6718629  70.5063233
  87.2600727  29.5712758  71.1765609  88.7587724  29.5157843  70.9699231
  74.2756604  28.4796166  61.8480192  74.3140704  27.9459757  62.6417310
  73.7696897  27.9531371  61.2291169  86.6782873  40.9785557  64.7420849
  87.2301181  41.1417178  65.5069935  87.0189067  41.5689994  64.0700874
  81.6547366  23.3260706  65.3442734  81.7188693  24.1875537  64.9320132
  81.5914487  22.7134708  64.6115093  81.1299639  25.3983839  68.9915768
  81.7571678  25.0160916  69.6053293  80.2727558  25.1798041  69.3571461
  91.5293748  35.8046814  70.5969504  92.0733652  36.4176772  70.1024459
  90.9480592  36.3626393  71.1136517  77.9065182  27.2060268  54.9234123
  78.2018623  26.2970946  54.8701177  77.0053217  27.1848008  54.6015126
  89.8151260  38.9267532  61.7284532  89.6902400  38.1257272  61.2195477
  90.4730352  39.4213726  61.2398502  81.4359429  25.2816265  60.9061672
  80.7146014  25.8952232  60.7669145  82.2252684  25.8174029  60.8278318
  91.8786169  36.7276552  63.3564082  90.9316504  36.6081903  63.2842408
  92.2268942  35.8399050  63.4390343  84.2385742  22.6170691  67.1802324
  84.7620144  22.8632988  67.9428633  84.0198076  23.4490726  66.7605461
  79.6353023  24.8874366  55.0473448  79.3065729  24.0071745  54.8648554
  79.9892394  24.8322034  55.9349838  88.8832602  36.5229268  59.5568434
  88.7357565  35.5945976  59.7376004  89.7086096  36.5449359  59.0725509
  82.7494846  25.1747336  55.4148926  83.0890919  25.7033257  54.6927534
  83.1966967  25.5127742  56.1907493  92.4866724  37.3457827  60.6433307
  93.4113271  37.1400689  60.5057758  92.3182027  37.0974228  61.5522648
  85.4438287  23.5584386  64.8651994  85.1035108  22.7592199  65.2672674
  84.7377294  23.8586097  64.2928827  86.0954759  20.6433699  63.3179317
  86.9180828  20.1694177  63.1958207  86.3392823  21.4224182  63.8178003
  84.7362994  23.6721957  53.6142219  85.4571356  24.0503210  53.1105936
  84.1128298  24.3910834  53.7177197  88.8794116  24.3767106  54.5500551
  89.0957731  25.2591744  54.2489379  88.3988184  23.9853320  53.8206193
  83.6193338  27.3352819  61.1271296  83.4737919  27.6493122  62.0195577
  83.1418541  27.9537720  60.5742194  85.4789721  24.3255367  61.1752185
  85.4651289  23.4296461  60.8384483  86.1962149  24.3326031  61.8090471
  87.3315851  24.7592708  63.2205313  87.0733629  25.6809778  63.2189643
  86.8000892  24.3623142  63.9105777  92.2762040  37.8643495  55.9995398
  92.4498918  37.2989917  55.2469251  92.7690931  38.6644390  55.8174888
  78.0939000  29.8758164  64.0658957  77.5492468  30.6517972  64.1979231
  78.9718350  30.2228968  63.9078078  84.8826617  23.2069748  56.4439755
  85.0042528  22.2786394  56.6430643  84.5928659  23.2208434  55.5318071
  87.7517807  20.8924658  59.5806475  87.7739504  20.9563991  58.6258455
  88.1685866  20.0529167  59.7746981  98.1301431  30.6279918  57.6185698
  98.5732577  29.8787243  57.2204821  97.2527942  30.6190054  57.2359430
  93.2637213  37.1810259  53.0992296  93.9588117  37.8016952  53.3179611
  93.6060363  36.3305610  53.3744674  78.8805022  29.0028060  66.9589114
  78.1386758  29.1510695  67.5453744  78.5597766  29.2636326  66.0955863
  95.1628636  34.6309965  54.6279627  95.6879960  34.9697237  53.9028947
  95.0750988  33.6956980  54.4442762  86.8469297  40.6981948  58.9874880
  86.4074287  40.2058327  59.6807737  87.5977414  40.1554916  58.7466956
  84.3667696  24.7201745  70.6529688  84.4155852  25.5963868  70.2707458
  84.9090210  24.1779138  70.0801331  94.8522542  35.2642868  69.9330825
  94.0618086  35.2467007  69.3935325  94.6155896  35.8031162  70.6879862
  94.9720417  32.1135335  67.2463554  95.0218422  31.9485342  68.1879076
  94.8634340  31.2462594  66.8561434  83.8556676  34.7923880  54.5355643
  84.0044796  35.4759345  53.8822315  84.6623119  34.7728970  55.0505098
  92.2624179  28.0966263  68.5622860  93.1634042  27.9572727  68.2706858
  92.3372154  28.2620717  69.5021038  86.5966985  25.4733117  67.4076047
  85.7270294  25.7666683  67.1358635  86.8326465  26.0573562  68.1283310
  96.4738614  34.5332276  67.4905575  96.1823422  34.8962257  68.3269036
  95.8610745  33.8199284  67.3118907  97.6734296  32.0985156  60.0108145
  98.5081187  32.5374960  60.1745706  97.8093425  31.6223809  59.1916391
  94.7225802  29.6564891  65.9585633  95.1979924  29.8492537  65.1504485
  93.7991367  29.7124077  65.7129017  81.6109309  30.8189058  55.5416711
  81.3655351  29.9151388  55.7396922  81.7805223  30.8206208  54.5996189
  89.3006018  21.6912734  64.9241467  89.8187962  22.4273761  64.5987956
  88.9461151  21.9976728  65.7588226  80.8804956  26.5517415  53.0402873
  80.1874201  26.6261770  52.3842909  80.6356708  25.7877759  53.5624390
  89.5518613  18.1113017  60.4442364  89.8320366  17.4436206  61.0702790
  90.3369220  18.3042112  59.9317028  87.3552081  37.2872011  52.0067390
  86.7826048  37.9062198  51.5537862  87.9284875  37.8371372  52.5407312
  93.4227471  26.5330651  64.1913939  94.3744894  26.6328748  64.2126163
  93.2530921  25.7408919  64.7012023  91.4441850  23.6186234  64.3773340
  90.8491783  23.8991247  63.6819828  91.1591547  24.1080135  65.1490081
  90.5749341  37.5709161  53.1375972  91.5080014  37.5054723  53.3408848
  90.4872554  38.4065428  52.6790505  93.2037358  36.8875031  50.0979920
  93.1250989  36.5534895  50.9915678  94.0247024  37.3796799  50.0971392
  95.9015549  29.7536771  63.3056238  95.8691869  28.8152771  63.4915922
  96.5116172  29.8320807  62.5722063  87.7398880  28.6232823  49.3483442
  88.6857984  28.4939032  49.4171861  87.3613125  27.8847485  49.8252871
  96.0510037  26.5447814  63.3514522  95.5349086  25.7606271  63.1644450
  96.9349986  26.2166531  63.5161041  93.7120764  20.2888830  59.3110334
  93.5145585  19.9803918  60.1953666  94.3220470  21.0150468  59.4408264
 101.7192099  30.8152777  62.4462275 102.4495487  30.5538065  63.0069979
 101.1099044  30.0781499  62.4864343  99.8007396  28.9560640  63.0436726
  99.0740559  28.8216605  62.4353218  99.3854683  29.2637469  63.8493444
  85.9241797  26.5482800  49.2838328  85.0173252  26.2515913  49.3601041
  86.2017778  26.2512618  48.4172614  76.8419737  27.8689163  59.7337374
  76.5222522  27.0154471  59.4411748  76.2953165  28.0837741  60.4895341
  87.5403863  21.0919690  55.4382569  86.7304591  20.7466775  55.8137815
  88.2288279  20.7827233  56.0270181  89.4694411  20.1697736  57.0606866
  90.0225449  20.5893190  57.7196889  89.7064497  19.2433484  57.1029822
  85.4927510  26.1584810  72.8409630  85.3924237  27.1079167  72.7721721
  85.2749052  25.8303049  71.9685700  84.6940581  23.4069735  49.4250307
  85.5559745  23.7324633  49.6846124  84.8790926  22.6201231  48.9123373
  92.8473218  22.2798262  56.5685530  92.2671887  22.9383066  56.1863582
  92.5809151  21.4575606  56.1572947  91.2976784  21.6803319  58.7706850
  91.7976563  21.7919854  57.9621169  91.9412392  21.3764372  59.4107659
  85.3558780  29.5881949  71.6574691  84.8725862  30.3882309  71.8638580
  85.4419719  29.5989894  70.7042135  91.6298096  24.4398352  55.6241878
  90.7423951  24.7248003  55.4062073  92.0452085  24.2792115  54.7769155
  94.9812632  24.4644873  59.3396217  95.7573022  24.9541325  59.6120834
  94.2560766  24.8902927  59.7968087  97.4185191  25.1772492  60.3970158
  98.0129681  24.9368228  59.6863466  97.4911774  24.4579623  61.0243694
  90.7741309  34.2043027  49.7189898  91.4777160  34.4093029  50.3347554
  90.0503958  34.7719788  49.9838982  91.6039120  29.9552888  55.8392168
  91.5474321  30.4121439  54.9999801  92.1567462  29.1943572  55.6615011
  95.4143926  25.7442620  56.6642288  95.1580860  25.3439255  57.4950496
  94.7896794  26.4586414  56.5392427  99.7256263  28.4838693  59.1713579
  99.1655821  28.5531882  59.9445141  99.1199767  28.3079678  58.4513075
  92.6828007  34.6425556  51.7688358  93.5173611  34.2106754  51.5865833
  92.5212350  34.4707569  52.6965253  92.3373899  31.1457669  53.1344698
  92.2822703  30.9801941  52.1933142  91.7119954  31.8533702  53.2906887
  77.1266414  26.3825733  66.9606120  77.7725278  25.8724687  67.4493345
  76.9183565  27.1194415  67.5349545  89.6519806  33.4506581  72.4598260
  90.5210966  33.6247233  72.0984895  89.1726558  34.2700998  72.3373990
  85.6470024  20.6465778  52.7130016  85.6348694  21.5907618  52.8698287
  86.5393446  20.4635924  52.4189477  89.4622144  17.2408555  56.9675953
  88.6954540  16.6867041  57.1132635  89.8732849  17.3130424  57.8290104
  81.4663905  23.5293351  71.0581134  82.3295367  23.1730155  71.2684459
  80.8929316  23.1907245  71.7456538 101.3112282  45.1595207  61.8643535
 101.9490692  45.0401954  61.1606875 101.1933125  46.1076051  61.9231487
  98.1201988  45.1122635  61.8005060  97.7820500  44.9963700  60.9125595
  98.9891756  44.7113800  61.7806066  93.9788804  46.9658111  57.7901951
  93.4153669  46.8748048  57.0218238  93.8641199  46.1458016  58.2704443
  98.6021771  46.2657487  67.7591265  98.5910412  45.8710285  66.8871769
  98.7642411  45.5323559  68.3525037  99.5588363  50.6329079  53.1016416
  98.9076342  51.2183160  52.7150429 100.3532725  51.1635274  53.1611453
  93.4843990  47.7218216  53.5003550  94.2574866  47.1747203  53.3616426
  93.8369389  48.5862466  53.7118011  95.3229032  49.0494599  66.7070449
  95.0318898  49.9540229  66.5917115  95.9586017  49.0911126  67.4214519
  96.2485239  46.4271447  63.2971809  96.8448811  46.2027469  62.5828772
  96.3060211  45.6856193  63.8997257  95.8210268  43.8810882  51.1322000
  96.0735788  43.3592404  50.3705463  94.8834827  43.7177028  51.2348683
 100.8653550  42.8846661  58.9396743 101.6516640  42.4666084  58.5887160
 101.1292255  43.7892753  59.1078391 101.0363628  48.3219511  53.6385400
 100.4009461  48.3954138  54.3506304 100.7061034  48.9113110  52.9604479
 106.2661978  42.8221894  59.8429722 106.9987149  42.2521111  60.0767551
 105.5101333  42.4343494  60.2836227  95.5406556  45.7838988  53.3346375
  95.4242814  45.1083892  54.0027459  95.6508816  45.2971362  52.5178528
  97.8838097  45.2449135  57.0393064  97.5196304  44.7179756  57.7505985
  98.7405213  44.8547605  56.8659549 103.7887398  36.5343468  64.3024330
 103.4570723  37.4038879  64.0785545 103.1933011  36.2179752  64.9818361
  97.5243584  40.2739035  52.0354412  97.6917987  41.1419272  52.4024884
  97.3340753  40.4366317  51.1115702 100.2818917  48.7356014  63.7020243
  99.9819640  49.6381053  63.5936050  99.9369977  48.4688197  64.5541396
  93.7331399  45.1869811  59.7356947  92.8081895  45.0546025  59.9434639
  93.9815812  45.9664030  60.2326890 103.6816061  41.2538554  61.3817680
 102.7732939  41.1853963  61.0876441 103.6303657  41.7310499  62.2099506
  97.5032805  42.7296693  53.0201079  97.3832430  43.1753743  53.8586560
  96.8085393  43.0782010  52.4614617  95.2639697  55.5000334  56.6691211
  95.1863727  56.4508159  56.7479691  94.6601341  55.1546207  57.3266137
  97.7556927  42.6728200  69.3252577  96.9790261  43.2322120  69.3155442
  98.3947490  43.1584983  69.8467448 105.5477708  39.4554993  63.1595554
 104.9052088  39.7487526  62.5135349 105.0432636  39.3407913  63.9648751
 103.2017871  43.2018166  53.8481413 104.1135727  43.4345553  53.6729111
 102.6927518  43.7855210  53.2856492  96.0103299  45.4813653  68.8870544
  96.7517984  46.0198697  68.6105368  95.3040285  46.1079942  69.0442096
 101.4858639  47.6242794  67.4842706 101.8941995  47.1825204  66.7397338
 100.7635900  47.0495421  67.7376899  97.8389709  42.5615400  64.8576263
  98.6850904  42.9854814  65.0010912  97.7788347  41.9049025  65.5514826
 101.8087454  48.1843984  61.2394995 101.1796316  48.3489698  60.5371063
 101.4213116  48.5985594  62.0105959 105.6876685  49.1198422  58.5939359
 105.0027724  49.4997323  58.0436392 105.7720535  49.7293749  59.3271306
 100.9889154  40.2219769  66.5157437 100.7450086  40.9761829  65.9791712
 101.2649085  40.6005116  67.3504684 102.9427617  46.7658381  65.1934702
 103.1544512  47.4090141  64.5169083 102.8957365  45.9320698  64.7256632
 100.5453846  39.3776202  62.0971274  99.6838325  39.6757455  62.3888012
 100.5716281  39.5946601  61.1652307  97.3615415  47.9218392  58.5045080
  97.8253761  48.2006095  57.7149702  97.0972214  47.0201837  58.3218171
  94.2539496  47.4689874  61.4424843  94.8240854  47.8977142  60.8042328
  94.8447608  47.1872459  62.1409029  96.2984301  44.0441545  55.3134645
  97.0008345  44.4962588  55.7808571  95.9664930  43.4025364  55.9414538
  94.7464663  42.6353301  69.6885854  94.1163324  43.3169582  69.9221251
  94.6400751  42.5236383  68.7438993  90.0409635  42.3025097  60.6151779
  89.2508689  42.5582626  60.1391889  90.5320883  43.1173435  60.7203819
 104.0573445  49.6430337  63.3657059 104.8790889  49.2410524  63.0839741
 104.0535848  49.5398571  64.3173175  91.9924381  42.6669677  57.5735255
  91.1955544  42.7788371  58.0918751  91.7649973  43.0056329  56.7076146
  97.8230048  49.1914380  65.5217770  97.8874481  49.6534787  66.3575942
  97.1140972  48.5611745  65.6500080 112.1479438  45.9869085  59.7142031
 111.3943146  45.4176483  59.5586035 112.2826979  45.9531750  60.6612666
  97.5378066  50.8582487  55.3896750  97.4023741  51.7034023  55.8181598
  98.0787879  51.0601765  54.6262684  94.0245406  36.9374067  72.0511105
  93.6312351  36.3840266  72.7258750  94.8411546  37.2484646  72.4417623
  90.9907463  48.3757925  55.9624675  91.5031984  49.1701176  56.1130240
  91.6430176  47.6784216  55.8958277  92.8002348  51.4923682  58.0447429
  92.9768977  52.4141646  57.8568412  93.5959182  51.1782101  58.4741808
  96.9413367  38.3531946  69.6431362  97.6823080  38.9539099  69.5635825
  97.1731290  37.6109584  69.0849405  99.1646542  51.4806054  69.5197092
  98.7210397  50.6942432  69.2017997  99.8263756  51.6685204  68.8540983
  93.9233664  53.0101855  64.0457771  94.4741089  52.8818919  63.2734765
  93.0845140  53.3096744  63.6952664 101.2627781  51.7608854  67.5478494
 101.2446256  52.5817735  67.0558763 102.1847701  51.6362929  67.7728635
  97.7200835  49.2752983  68.3902002  98.2529172  48.5141271  68.1601310
  97.1914916  48.9826635  69.1326156 100.8870530  34.3813049  63.9195644
 100.5434799  35.2714691  63.8434754 101.2549492  34.1914707  63.0565229
  88.9556380  46.7046580  56.7384246  89.7931602  47.1143588  56.5217954
  89.1334648  45.7646022  56.7084440 100.8520812  44.3721660  52.4268079
 100.3367436  45.1426265  52.6656466 100.5798121  43.6986797  53.0501140
  98.4367923  39.2171361  57.4853317  97.5809520  38.8278212  57.3058956
  98.8494875  39.2963322  56.6253103  99.9667070  36.7517704  61.8844877
  99.4631866  36.7147840  61.0712682 100.2597677  37.6610447  61.9441534
  96.2109956  36.8356434  60.8911059  97.0762953  36.6399243  60.5316948
  96.2787465  36.6066786  61.8180415 105.8255087  47.1254015  54.3621252
 105.0484529  46.7865174  53.9176414 106.5046568  47.1306638  53.6876217
 100.6407116  42.2448752  54.2527860 100.3357251  42.5594902  55.1038003
 101.5937558  42.3230172  54.2955193  99.0853547  48.4038976  55.9020814
  98.5574909  47.6691735  55.5894051  98.5841050  49.1813652  55.6560782
 104.0646393  46.5987996  61.0187860 103.4070068  47.2887258  61.1067989
 104.8686793  46.9884428  61.3621847  93.8172275  39.0658642  58.2627426
  94.3916027  38.8433824  57.5300618  94.4043257  39.1347337  59.0156027
 102.8751852  44.9532369  59.0691802 103.3883734  45.5862361  59.5713512
 103.5253076  44.3533564  58.7035162  94.1441862  41.0963103  52.2823311
  93.3079174  41.4337790  52.6032586  94.0046632  40.9612083  51.3450448
  96.1194943  35.9399891  56.9902495  95.4659355  35.6248908  56.3659110
  96.0775417  35.3175631  57.7162318  97.2306148  46.2219186  48.9055787
  96.3233209  45.9908439  49.1046936  97.7277180  45.4256805  49.0929769
 100.1374226  54.9316693  51.8252473  99.4635925  55.2348390  52.4337431
 100.5240048  55.7345774  51.4757930  99.3532683  42.4281824  61.3150143
  98.4355244  42.6496771  61.1571831  99.7692827  42.5028135  60.4561850
 100.1367731  43.8273240  56.4452823 100.8839550  44.3394637  56.1359945
 100.4059320  43.5057293  57.3057216  98.4094381  46.3231781  53.4279777
  97.5005600  46.0390814  53.5252247  98.4389465  46.7430859  52.5683084
 103.6413648  49.9338370  57.1970945 103.1875976  49.0929280  57.2536135
 103.0107615  50.5699769  57.5345725 102.5846568  40.8630356  58.4271612
 101.8469325  40.3507743  58.7581855 102.8373342  40.4230738  57.6154889
 102.0846588  51.7714867  58.1320763 102.3769562  52.3319924  57.4133128
 102.5945208  52.0643428  58.8873922 102.6858195  33.6406608  59.0213381
 102.9917072  32.7803972  58.7339296 103.4110800  34.2324229  58.8212375
  88.9782551  44.0437295  57.4094979  88.7806951  43.4506656  56.6846046
  88.4229215  43.7389505  58.1270918  96.9579275  43.9360401  59.5289572
  97.0127885  42.9834238  59.4532049  96.1470477  44.0919841  60.0130871
  98.1070469  47.8640525  50.7667856  97.6689899  47.1476383  50.3073493
  98.8480910  48.0916639  50.2052947  94.8971635  42.5537461  57.2879951
  94.0839501  42.8531632  57.6945143  95.3930629  42.1593150  58.0054434
  97.0480213  52.5495218  59.2214216  97.0056392  52.7756064  58.2922748
  97.9642912  52.3158593  59.3700017 100.4945847  43.0179286  66.1194845
 100.8495234  43.2450759  66.9789311 101.1417978  43.3497662  65.4972101
 106.2243584  46.1397722  56.8244174 106.0861482  46.3299318  55.8965363
 105.8679802  46.9017104  57.2812225  94.3885710  40.1255817  62.9041186
  95.0285089  39.9844576  62.2064150  93.5563240  39.8390330  62.5279788
 106.2512963  48.2074249  61.8355446 106.6849470  48.1149538  62.6838500
 106.9644544  48.1831749  61.1975462  95.1646014  49.4258247  59.0176179
  95.9586612  48.9308567  58.8158754  94.4537706  48.8976110  58.6543884
  99.9840858  51.8076343  63.3688546 100.0377880  52.3767279  64.1366262
  99.1155639  51.9778228  63.0042584  91.4728777  43.5701329  55.0935931
  90.5426365  43.5085784  55.3105894  91.5686249  43.0477282  54.2972573
  91.3914326  40.0956142  57.6814173  91.6521143  41.0101475  57.5723334
  92.2131498  39.6280584  57.8310786  92.8639252  41.5093899  64.8512998
  93.5362305  41.3011261  64.2025647  92.0369038  41.3115985  64.4118230
 107.1128513  48.2497949  64.3688331 107.3064403  49.1543760  64.6147606
 107.0129131  47.7905368  65.2026916  98.7664824  38.1355840  66.8678659
  98.1192739  38.8345789  66.7743135  99.5365839  38.5691984  67.2354907
 102.1743621  48.4004692  69.9429212 102.0229128  48.1715244  69.0259295
 102.1648301  49.3575293  69.9560557  98.9428958  45.9736605  64.9275478
  99.8721018  46.1247764  64.7544446  98.5219988  46.0620626  64.0724125
  97.7417290  49.9987269  62.6974016  97.6028375  49.6306054  63.5699954
  96.9531886  50.5134909  62.5257974  98.3365442  55.0996366  54.0399552
  98.5117197  54.6284409  54.8545175  97.6498230  55.7262132  54.2680813
  99.2922505  49.3768872  60.0862854  98.9572337  49.3369642  60.9820504
  98.7926450  48.7113588  59.6133264  93.2666749  44.7836502  65.6115435
  93.1286547  44.0516741  66.2126974  94.1771672  44.6945402  65.3299623
 102.2281696  46.7224906  50.3599913 101.6110867  45.9971734  50.2632966
 101.7598185  47.4834266  50.0166988  95.8949049  44.4956461  65.0999114
  96.6048668  43.8549653  65.0585733  95.8518358  44.7469356  66.0225295
 103.8835828  51.4323815  68.0205694 103.8248374  50.7483035  67.3536277
 104.2855346  52.1742805  67.5686320  94.6077983  41.4821679  66.9194754
  94.0715340  41.0312418  67.5716350  94.0194692  41.6167588  66.1765218
  92.9026527  58.2485728  60.8139413  93.1423125  58.8804253  61.4918431
  92.0595723  57.8973768  61.1004772  94.0180242  40.9410331  49.4821218
  93.1409709  40.8199131  49.1183464  94.4937995  40.1496409  49.2300106
 103.8853235  49.3963398  66.2519673 102.9980014  49.0589320  66.3746072
 104.4551786  48.6646430  66.4888439  90.3417105  40.6177687  64.0047748
  90.2575293  40.0103356  63.2698158  89.5199811  41.1086705  64.0057245
  97.4154389  54.0564851  63.2180917  97.3424560  54.8619822  63.7300221
  96.9731782  54.2556817  62.3928938  97.2044168  53.2936621  56.7283738
  96.4211690  53.8358301  56.8221963  97.9036914  53.8110601  57.1277979
 100.5140819  39.1031250  59.3717943 101.0109518  38.3501213  59.0519014
  99.7427800  39.1395567  58.8061153 108.3670576  44.8071616  61.0136235
 108.3560452  45.6896331  60.6430168 107.4987955  44.4543167  60.8190772
  99.8753072  53.9551685  65.3739075 100.5881044  54.5899150  65.3014977
  99.3843101  54.0515551  64.5579077 101.5970599  47.8602938  56.9456367
 100.6626878  47.9804400  56.7761071 101.7747268  46.9575404  56.6816377
  97.0975787  41.2448633  59.0989628  96.7273575  40.6919674  59.7870534
  97.5934880  40.6406767  58.5464628 104.9843151  43.7020257  57.4806401
 105.4503603  44.5348248  57.4066704 105.4350651  43.2365238  58.1851660
  94.9264986  51.7046128  66.1944646  95.6274445  52.3382611  66.3474040
  94.4560101  52.0460860  65.4340285 103.0519382  50.0464078  54.4792553
 103.3279226  49.9320673  55.3886427 102.1823880  49.6481563  54.4404726
 102.9559813  36.0700844  61.5197302 102.0422893  36.3005071  61.6879509
 103.3852915  36.1539288  62.3711335 102.7266272  44.2590736  64.0197196
 102.0737722  44.5066643  63.3649649 103.1046652  43.4454874  63.6859674
  99.6873446  54.2950429  58.1225367  99.8695840  53.4772085  58.5853119
 100.5106432  54.5118121  57.6850257 100.0215611  53.2218614  55.3840415
 100.5503378  52.7111069  54.7710577 100.2843831  52.9061144  56.2485948
  98.7753845  45.0010547  70.5063233  98.0994482  44.9004676  71.1765609
  99.5981479  44.8449761  70.9699231  90.5232704  51.2382483  63.1275749
  91.1086141  50.4926171  63.2603653  90.3257542  51.5486440  64.0112413
  93.3771359  54.2733731  58.1438191  92.7081734  54.7579858  57.6602231
  93.2384229  54.5202951  59.0581570  97.5176628  56.3077474  64.7420849
  98.0694936  56.4709096  65.5069935  97.8582821  56.8981912  64.0700874
  92.4941121  38.6552624  65.3442734  92.5582447  39.5167455  64.9320132
  92.4308241  38.0426626  64.6115093  91.9693393  40.7275757  68.9915768
  92.5965432  40.3452834  69.6053293  91.1121312  40.5089959  69.3571461
 102.3687502  51.1338732  70.5969504 102.9127406  51.7468690  70.1024459
 101.7874347  51.6918310  71.1136517  88.7458936  42.5352186  54.9234123
  89.0412377  41.6262864  54.8701177  87.8446972  42.5139925  54.6015126
 100.6545015  54.2559450  61.7284532 100.5296154  53.4549190  61.2195477
 101.3124106  54.7505643  61.2398502  92.2753183  40.6108182  60.9061672
  91.5539769  41.2244150  60.7669145  93.0646439  41.1465947  60.8278318
 102.7179923  52.0568470  63.3564082 101.7710259  51.9373821  63.2842408
 103.0662696  51.1690968  63.4390343  95.0779497  37.9462609  67.1802324
  95.6013899  38.1924905  67.9428633  94.8591830  38.7782644  66.7605461
  90.4746778  40.2166283  55.0473448  90.1459484  39.3363662  54.8648554
  90.8286148  40.1613952  55.9349838  99.7226357  51.8521186  59.5568434
  99.5751319  50.9237894  59.7376004 100.5479850  51.8741277  59.0725509
  93.5888601  40.5039253  55.4148926  93.9284673  41.0325174  54.6927534
  94.0360721  40.8419659  56.1907493 103.3260478  52.6749745  60.6433307
 104.2507026  52.4692606  60.5057758 103.1575782  52.4266146  61.5522648
  96.2832042  38.8876304  64.8651994  95.9428862  38.0884117  65.2672674
  95.5771048  39.1878015  64.2928827  96.9348514  35.9725616  63.3179317
  97.7574583  35.4986095  63.1958207  97.1786577  36.7516100  63.8178003
  95.5756748  39.0013875  53.6142219  96.2965111  39.3795128  53.1105936
  94.9522052  39.7202752  53.7177197  99.7187871  39.7059024  54.5500551
  99.9351485  40.5883662  54.2489379  99.2381938  39.3145237  53.8206193
  94.4587092  42.6644737  61.1271296  94.3131673  42.9785040  62.0195577
  93.9812296  43.2829637  60.5742194  96.3183475  39.6547285  61.1752185
  96.3045044  38.7588378  60.8384483  97.0355903  39.6617949  61.8090471
  98.1709606  40.0884625  63.2205313  97.9127384  41.0101696  63.2189643
  97.6394646  39.6915060  63.9105777 103.1155795  53.1935412  55.9995398
 103.2892672  52.6281835  55.2469251 103.6084686  53.9936307  55.8174888
  95.7220371  38.5361665  56.4439755  95.8436282  37.6078311  56.6430643
  95.4322414  38.5500351  55.5318071  98.5911562  36.2216576  59.5806475
  98.6133258  36.2855909  58.6258455  99.0079621  35.3821084  59.7746981
 108.9695186  45.9571835  57.6185698 109.4126332  45.2079160  57.2204821
 108.0921696  45.9481972  57.2359430 104.1030967  52.5102177  53.0992296
 104.7981872  53.1308869  53.3179611 104.4454117  51.6597528  53.3744674
 106.0022390  49.9601882  54.6279627 106.5273714  50.2989155  53.9028947
 105.9144743  49.0248898  54.4442762  97.6642439  53.8735956  66.7569504
  97.9729565  53.6285103  67.6292203  98.4617921  54.0782594  66.2688374
  97.6863051  56.0273866  58.9874880  97.2468041  55.5350244  59.6807737
  98.4371168  55.4846833  58.7466956  95.1336923  51.5711875  61.0597182
  94.5116932  50.9082580  60.7599410  95.8041790  51.5973006  60.3770830
  95.2061451  40.0493663  70.6529688  95.2549606  40.9255785  70.2707458
  95.7483965  39.5071056  70.0801331 105.6916296  50.5934786  69.9330825
 104.9011840  50.5758925  69.3935325 105.4549651  51.1323080  70.6879862
 105.8114171  47.4427252  67.2463554 105.8612176  47.2777260  68.1879076
 105.7028095  46.5754511  66.8561434  94.6950430  50.1215798  54.5355643
  94.8438550  50.8051262  53.8822315  95.5016874  50.1020888  55.0505098
 103.1017934  43.4258180  68.5622860 104.0027797  43.2864645  68.2706858
 103.1765908  43.5912635  69.5021038  97.4360739  40.8025035  67.4076047
  96.5664049  41.0958601  67.1358635  97.6720220  41.3865480  68.1283310
 107.3132368  49.8624194  67.4905575 107.0217177  50.2254174  68.3269036
 106.7004500  49.1491202  67.3118907 108.5128051  47.4277074  60.0108145
 109.3474942  47.8666878  60.1745706 108.6487179  46.9515727  59.1916391
 105.5619557  44.9856808  65.9585633 106.0373678  45.1784455  65.1504485
 104.6385122  45.0415994  65.7129017  92.4503063  46.1480976  55.5416711
  92.2049105  45.2443306  55.7396922  92.6198978  46.1498126  54.5996189
 100.1399773  37.0204652  64.9241467 100.6581717  37.7565679  64.5987956
  99.7854906  37.3268645  65.7588226  91.7198711  41.8809333  53.0402873
  91.0267956  41.9553688  52.3842909  91.4750463  41.1169677  53.5624390
 100.3912367  33.4404934  60.4442364 100.6714121  32.7728124  61.0702790
 101.1762974  33.6334030  59.9317028  98.1945836  52.6163928  52.0067390
  97.6219803  53.2354116  51.5537862  98.7678629  53.1663290  52.5407312
 104.2621226  41.8622568  64.1913939 105.2138648  41.9620666  64.2126163
 104.0924676  41.0700837  64.7012023 102.2835605  38.9478152  64.3773340
 101.6885537  39.2283164  63.6819828 101.9985302  39.4372053  65.1490081
 101.4143095  52.9001079  53.1375972 102.3473769  52.8346640  53.3408848
 101.3266308  53.7357345  52.6790505 104.0431112  52.2166949  50.0979920
 103.9644744  51.8826812  50.9915678 104.8640779  52.7088717  50.0971392
 106.7409303  45.0828688  63.3056238 106.7085623  44.1444689  63.4915922
 107.3509927  45.1612725  62.5722063  98.5792634  43.9524741  49.3483442
  99.5251739  43.8230949  49.4171861  98.2006879  43.2139403  49.8252871
 106.8903792  41.8739732  63.3514522 106.3742840  41.0898188  63.1644450
 107.7743740  41.5458448  63.5161041 104.5514519  35.6180747  59.3110334
 104.3539340  35.3095835  60.1953666 105.1614224  36.3442386  59.4408264
 112.5585853  46.1444695  62.4462275 113.2889242  45.8829983  63.0069979
 111.9492799  45.4073417  62.4864343 110.6401150  44.2852558  63.0436726
 109.9134314  44.1508523  62.4353218 110.2248437  44.5929386  63.8493444
  98.4631327  48.0042487  70.8084099  99.3834336  48.1821086  71.0024146
  98.4280910  47.0598533  70.6563799  96.7635551  41.8774718  49.2838328
  95.8567007  41.5807830  49.3601041  97.0411532  41.5804536  48.4172614
  98.3797617  36.4211607  55.4382569  97.5698345  36.0758692  55.8137815
  99.0682034  36.1119151  56.0270181 100.3088165  35.4989654  57.0606866
 100.8619204  35.9185107  57.7196889 100.5458252  34.5725402  57.1029822
  96.3321265  41.4876728  72.8409630  96.2317991  42.4371085  72.7721721
  96.1142807  41.1594967  71.9685700  95.5334336  38.7361653  49.4250307
  96.3953500  39.0616551  49.6846124  95.7184680  37.9493149  48.9123373
 103.6866972  37.6090179  56.5685530 103.1065641  38.2674983  56.1863582
 103.4202905  36.7867524  56.1572947 102.1370539  37.0095237  58.7706850
 102.6370317  37.1211771  57.9621169 102.7806147  36.7056290  59.4107659
  96.1952535  44.9173867  71.6574691  95.7119616  45.7174227  71.8638580
  96.2813474  44.9281811  70.7042135  92.7125254  47.3779517  66.2613923
  93.5318143  47.8723596  66.2848760  92.9862062  46.4611485  66.2331490
 102.4691850  39.7690270  55.6241878 101.5817705  40.0539920  55.4062073
 102.8845839  39.6084033  54.7769155 105.8206387  39.7936791  59.3396217
 106.5966777  40.2833243  59.6120834 105.0954521  40.2194845  59.7968087
 108.2578945  40.5064410  60.3970158 108.8523436  40.2660146  59.6863466
 108.3305529  39.7871540  61.0243694  90.4776101  54.3498021  60.7113323
  90.3430569  53.5898422  60.1451321  90.0608163  55.0738921  60.2442112
 101.6135064  49.5334944  49.7189898 102.3170914  49.7384947  50.3347554
 100.8897713  50.1011706  49.9838982 102.4432874  45.2844806  55.8392168
 102.3868076  45.7413357  54.9999801 102.9961217  44.5235490  55.6615011
 106.2537680  41.0734537  56.6642288 105.9974614  40.6731173  57.4950496
 105.6290548  41.7878331  56.5392427 110.5650018  43.8130611  59.1713579
 110.0049576  43.8823800  59.9445141 109.9593521  43.6371595  58.4513075
  93.6345227  55.2467338  60.9231766  93.5177611  56.1912770  60.8210456
  92.8137673  54.9440899  61.3117565 103.5221761  49.9717473  51.7688358
 104.3567365  49.5398672  51.5865833 103.3606104  49.7999487  52.6965253
 103.1767653  46.4749587  53.1344698 103.1216457  46.3093858  52.1933142
 102.5513709  47.1825620  53.2906887  87.9660168  41.7117651  66.9606120
  88.6119032  41.2016605  67.4493345  87.7577320  42.4486333  67.5349545
 100.4913561  48.7798499  72.4598260 101.3604720  48.9539151  72.0984895
 100.0120312  49.5992915  72.3373990  96.4863779  35.9757696  52.7130016
  96.4742449  36.9199536  52.8698287  97.3787201  35.7927841  52.4189477
  94.6599741  55.8995600  64.1387694  95.5626988  55.9319210  64.4554189
  94.4337111  54.9696051  64.1534030  96.4153343  54.6526586  60.7997773
  95.4648974  54.6528448  60.6862145  96.7185829  53.9059321  60.2833807
 100.3015898  32.5700472  56.9675953  99.5348294  32.0158959  57.1132635
 100.7126603  32.6422341  57.8290104  92.3057659  38.8585268  71.0581134
  93.1689121  38.5022073  71.2684459  91.7323070  38.5199163  71.7456538
 112.1506036  60.4887125  61.8643535 112.7884446  60.3693872  61.1606875
 112.0326879  61.4367969  61.9231487 108.9595743  60.4414553  61.8005060
 108.6214254  60.3255617  60.9125595 109.8285511  60.0405718  61.7806066
 104.8182558  62.2950029  57.7901951 104.2547423  62.2039966  57.0218238
 104.7034953  61.4749934  58.2704443 109.4415526  61.5949404  67.7591265
 109.4304166  61.2002203  66.8871769 109.6036165  60.8615477  68.3525037
 102.3646990  63.7901221  60.6286171 103.1568282  63.4492045  60.2132470
 102.6043640  63.8996196  61.5488324 110.3982117  65.9620997  53.1016416
 109.7470097  66.5475077  52.7150429 111.1926480  66.4927192  53.1611453
 104.3237744  63.0510134  53.5003550 105.0968620  62.5039121  53.3616426
 104.6763143  63.9154383  53.7118011 106.1622787  64.3786516  66.7070449
 105.8712653  65.2832147  66.5917115 106.7979771  64.4203044  67.4214519
 107.0878994  61.7563365  63.2971809 107.6842566  61.5319387  62.5828772
 107.1453965  61.0148110  63.8997257 106.6604022  59.2102800  51.1322000
 106.9129543  58.6884321  50.3705463 105.7228581  59.0468946  51.2348683
 111.7047305  58.2138578  58.9396743 112.4910394  57.7958002  58.5887160
 111.9686009  59.1184671  59.1078391 111.8757382  63.6511429  53.6385400
 111.2403215  63.7246055  54.3506304 111.5454789  64.2405028  52.9604479
 117.1055732  58.1513812  59.8429722 117.8380904  57.5813028  60.0767551
 116.3495088  57.7635412  60.2836227 106.3800311  61.1130906  53.3346375
 106.2636569  60.4375809  54.0027459 106.4902571  60.6263280  52.5178528
 108.7231852  60.5741053  57.0393064 108.3590059  60.0471674  57.7505985
 109.5798968  60.1839522  56.8659549 114.6281152  51.8635386  64.3024330
 114.2964477  52.7330797  64.0785545 114.0326766  51.5471670  64.9818361
 108.3637339  55.6030953  52.0354412 108.5311741  56.4711189  52.4024884
 108.1734508  55.7658235  51.1115702 111.1212672  64.0647932  63.7020243
 110.8213395  64.9672971  63.5936050 110.7763731  63.7980115  64.5541396
 104.5725153  60.5161729  59.7356947 103.6475650  60.3837943  59.9434639
 104.8209567  61.2955948  60.2326890 114.5209816  56.5830472  61.3817680
 113.6126693  56.5145880  61.0876441 114.4697411  57.0602417  62.2099506
 108.3426560  58.0588610  53.0201079 108.2226185  58.5045661  53.8586560
 107.6479148  58.4073928  52.4614617 101.9333964  60.1595002  60.5700736
 102.0626346  60.4129481  61.4840148 101.2531416  60.7522710  60.2505391
 106.1033452  70.8292252  56.6691211 106.0257481  71.7800077  56.7479691
 105.4995095  70.4838125  57.3266137 108.5950681  58.0020118  69.3252577
 107.8184016  58.5614038  69.3155442 109.2341245  58.4876900  69.8467448
 116.3871462  54.7846910  63.1595554 115.7445842  55.0779443  62.5135349
 115.8826391  54.6699831  63.9648751 114.0411626  58.5310084  53.8481413
 114.9529482  58.7637470  53.6729111 113.5321273  59.1147128  53.2856492
 106.8497054  60.8105571  68.8870544 107.5911738  61.3490615  68.6105368
 106.1434039  61.4371860  69.0442096 112.3252393  62.9534711  67.4842706
 112.7335749  62.5117122  66.7397338 111.6029655  62.3787339  67.7376899
 108.6783463  57.8907318  64.8576263 109.5244659  58.3146732  65.0010912
 108.6182101  57.2340942  65.5514826 112.6481208  63.5135902  61.2394995
 112.0190070  63.6781616  60.5371063 112.2606870  63.9277512  62.0105959
 116.5270440  64.4490340  58.5939359 115.8421478  64.8289241  58.0436392
 116.6114289  65.0585666  59.3271306 111.8282909  55.5511686  66.5157437
 111.5843841  56.3053747  65.9791712 112.1042839  55.9297034  67.3504684
 113.7821372  62.0950299  65.1934702 113.9938267  62.7382059  64.5169083
 113.7351120  61.2612615  64.7256632 111.3847601  54.7068119  62.0971274
 110.5232080  55.0049373  62.3888012 111.4110035  54.9238518  61.1652307
 108.2009170  63.2510310  58.5045080 108.6647515  63.5298013  57.7149702
 107.9365968  62.3493755  58.3218171 105.0933251  62.7981792  61.4424843
 105.6634608  63.2269060  60.8042328 105.6841363  62.5164376  62.1409029
 107.1378056  59.3733462  55.3134645 107.8402099  59.8254506  55.7808571
 106.8058684  58.7317281  55.9414538 105.5858418  57.9645219  69.6885854
 104.9557078  58.6461500  69.9221251 105.4794505  57.8528301  68.7438993
 100.8803390  57.6317015  60.6151779 100.0902444  57.8874544  60.1391889
 101.3714637  58.4465353  60.7203819 114.8967199  64.9722254  63.3657059
 115.7184643  64.5702442  63.0839741 114.8929602  64.8690488  64.3173175
 102.8318135  57.9961594  57.5735255 102.0349299  58.1080289  58.0918751
 102.6043728  58.3348247  56.7076146 108.6623803  64.5206298  65.5217770
 108.7268235  64.9826705  66.3575942 107.9534727  63.8903662  65.6500080
  99.1641093  57.8847506  63.0466769  99.4149131  58.7694515  63.3124345
  99.7000641  57.7052107  62.2741861 108.3771821  66.1874405  55.3896750
 108.2417495  67.0325941  55.8181598 108.9181633  66.3893683  54.6262684
 104.8639160  52.2665985  72.0511105 104.4706106  51.7132183  72.7258750
 105.6805301  52.5776563  72.4417623 101.8301218  63.7049843  55.9624675
 102.3425739  64.4993093  56.1130240 102.4823931  63.0076134  55.8958277
 103.6396103  66.8215599  58.0447429 103.8162731  67.7433564  57.8568412
 104.4352936  66.5074019  58.4741808 107.7807121  53.6823864  69.6431362
 108.5216835  54.2831017  69.5635825 108.0125044  52.9401502  69.0849405
 102.9248459  58.8680231  67.9209592 102.8101974  57.9665488  68.2216691
 102.0692977  59.1143928  67.5694408 110.0040297  66.8097972  69.5197092
 109.5604151  66.0234350  69.2017997 110.6657511  66.9977122  68.8540983
 104.7627418  68.3393773  64.0457771 105.3134843  68.2110836  63.2734765
 103.9238894  68.6388662  63.6952664 112.1021535  67.0900771  67.5478494
 112.0840010  67.9109653  67.0558763 113.0241455  66.9654847  67.7728635
 108.5594589  64.6044901  68.3902002 109.0922926  63.8433189  68.1601310
 108.0308670  64.3118553  69.1326156 111.7264284  49.7104967  63.9195644
 111.3828554  50.6006609  63.8434754 112.0943247  49.5206625  63.0565229
  99.7950135  62.0338497  56.7384246 100.6325357  62.4435506  56.5217954
  99.9728402  61.0937940  56.7084440 111.6914567  59.7013578  52.4268079
 111.1761190  60.4718183  52.6656466 111.4191875  59.0278714  53.0501140
 109.2761678  54.5463279  57.4853317 108.4203274  54.1570129  57.3058956
 109.6888630  54.6255240  56.6253103 110.8060825  52.0809622  61.8844877
 110.3025620  52.0439757  61.0712682 111.0991431  52.9902365  61.9441534
 107.0503710  52.1648352  60.8911059 107.9156707  51.9691160  60.5316948
 107.1181219  51.9358704  61.8180415 116.6648841  62.4545933  54.3621252
 115.8878284  62.1157092  53.9176414 117.3440322  62.4598556  53.6876217
 111.4800870  57.5740670  54.2527860 111.1751006  57.8886819  55.1038003
 112.4331312  57.6522090  54.2955193 109.9247302  63.7330893  55.9020814
 109.3968663  62.9983653  55.5894051 109.4234805  64.5105570  55.6560782
 114.9040148  61.9279914  61.0187860 114.2463822  62.6179175  61.1067989
 115.7080547  62.3176346  61.3621847 104.6566030  54.3950560  58.2627426
 105.2309781  54.1725741  57.5300618 105.2437012  54.4639254  59.0156027
 113.7145607  60.2824287  59.0691802 114.2277488  60.9154278  59.5713512
 114.3646831  59.6825482  58.7035162 104.9835617  56.4255021  52.2823311
 104.1472929  56.7629707  52.6032586 104.8440386  56.2904001  51.3450448
 106.9588697  51.2691809  56.9902495 106.3053110  50.9540826  56.3659110
 106.9169171  50.6467549  57.7162318 108.0699902  61.5511104  48.9055787
 107.1626964  61.3200357  49.1046936 108.5670934  60.7548723  49.0929769
 110.9767981  70.2608611  51.8252473 110.3029680  70.5640308  52.4337431
 111.3633803  71.0637691  51.4757930 110.1926438  57.7573742  61.3150143
 109.2748999  57.9788689  61.1571831 110.6086581  57.8320053  60.4561850
 110.9761485  59.1565158  56.4452823 111.7233304  59.6686555  56.1359945
 111.2453075  58.8349211  57.3057216 109.2488136  61.6523699  53.4279777
 108.3399355  61.3682731  53.5252247 109.2783219  62.0722777  52.5683084
 114.4807403  65.2630288  57.1970945 114.0269730  64.4221198  57.2536135
 113.8501370  65.8991686  57.5345725 113.4240322  56.1922274  58.4271612
 112.6863079  55.6799660  58.7581855 113.6767096  55.7522656  57.6154889
 112.9240342  67.1006785  58.1320763 113.2163317  67.6611842  57.4133128
 113.4338963  67.3935346  58.8873922 113.5251950  48.9698526  59.0213381
 113.8310827  48.1095890  58.7339296 114.2504555  49.5616146  58.8212375
  99.8176306  59.3729213  57.4094979  99.6200706  58.7798573  56.6846046
  99.2622970  59.0681423  58.1270918 107.7973030  59.2652319  59.5289572
 107.8521639  58.3126156  59.4532049 106.9864232  59.4211758  60.0130871
 108.9464223  63.1932442  50.7667856 108.5083653  62.4768301  50.3073493
 109.6874664  63.4208557  50.2052947 105.7365389  57.8829379  57.2879951
 104.9233255  58.1823549  57.6945143 106.2324384  57.4885068  58.0054434
 107.8873967  67.8787136  59.2214216 107.8450146  68.1047982  58.2922748
 108.8036666  67.6450510  59.3700017 111.3339601  58.3471203  66.1194845
 111.6888989  58.5742677  66.9789311 111.9811732  58.6789580  65.4972101
 117.0637338  61.4689639  56.8244174 116.9255237  61.6591235  55.8965363
 116.7073557  62.2309022  57.2812225 105.2279464  55.4547734  62.9041186
 105.8678844  55.3136494  62.2064150 104.3956995  55.1682248  62.5279788
 117.0906718  63.5366166  61.8355446 117.5243224  63.4441455  62.6838500
 117.8038298  63.5123667  61.1975462 106.0039768  64.7550165  59.0176179
 106.7980367  64.2600485  58.8158754 105.2931461  64.2268028  58.6543884
 110.8234613  67.1368260  63.3688546 110.8771635  67.7059197  64.1366262
 109.9549394  67.3070145  63.0042584 102.3122532  58.8993247  55.0935931
 101.3820120  58.8377702  55.3105894 102.4080004  58.3769199  54.2972573
 102.2308081  55.4248059  57.6814173 102.4914898  56.3393393  57.5723334
 103.0525253  54.9572502  57.8310786 103.7033006  56.8385817  64.8512998
 104.3756059  56.6303179  64.2025647 102.8762793  56.6407903  64.4118230
 117.9522267  63.5789867  64.3688331 118.1458157  64.4835677  64.6147606
 117.8522885  63.1197286  65.2026916 109.6058578  53.4647758  66.8678659
 108.9586493  54.1637707  66.7743135 110.3759593  53.8983901  67.2354907
 113.0137376  63.7296610  69.9429212 112.8622882  63.5007161  69.0259295
 113.0042055  64.6867211  69.9560557 109.7822712  61.3028522  64.9275478
 110.7114772  61.4539682  64.7544446 109.3613742  61.3912543  64.0724125
 108.5811044  65.3279187  62.6974016 108.4422130  64.9597971  63.5699954
 107.7925640  65.8426826  62.5257974 109.1759196  70.4288283  54.0399552
 109.3510952  69.9576327  54.8545175 108.4891984  71.0554050  54.2680813
 110.1316259  64.7060790  60.0862854 109.7966092  64.6661560  60.9820504
 109.6320205  64.0405505  59.6133264 104.1060503  60.1128420  65.6115435
 103.9680301  59.3808658  66.2126974 105.0165427  60.0237320  65.3299623
 113.0675451  62.0516824  50.3599913 112.4504622  61.3263652  50.2632966
 112.5991939  62.8126184  50.0166988 106.7342804  59.8248379  65.0999114
 107.4442422  59.1841571  65.0585733 106.6912112  60.0761274  66.0225295
 114.7229583  66.7615732  68.0205694 114.6642129  66.0774952  67.3536277
 115.1249101  67.5034722  67.5686320 105.4471738  56.8113597  66.9194754
 104.9109095  56.3604335  67.5716350 104.8588446  56.9459506  66.1765218
 103.7420281  73.5777646  60.8139413 103.9816880  74.2096170  61.4918431
 102.8989478  73.2265686  61.1004772 104.8573997  56.2702248  49.4821218
 103.9803463  56.1491049  49.1183464 105.3331750  55.4788326  49.2300106
 114.7246990  64.7255316  66.2519673 113.8373769  64.3881238  66.3746072
 115.2945541  63.9938347  66.4888439  96.3776137  61.0579408  59.5762725
  97.0647177  60.7441138  58.9883740  96.2224266  61.9620773  59.3029976
 101.1810859  55.9469604  64.0047748 101.0969048  55.3395274  63.2698158
 100.3593566  56.4378623  64.0057245 108.2548143  69.3856769  63.2180917
 108.1818315  70.1911740  63.7300221 107.8125536  69.5848734  62.3928938
 108.0437923  68.6228539  56.7283738 107.2605445  69.1650219  56.8221963
 108.7430668  69.1402518  57.1277979 111.3534573  54.4323168  59.3717943
 111.8503273  53.6793130  59.0519014 110.5821555  54.4687485  58.8061153
 119.2064330  60.1363534  61.0136235 119.1954207  61.0188249  60.6430168
 118.3381710  59.7835084  60.8190772 110.7146827  69.2843603  65.3739075
 111.4274799  69.9191067  65.3014977 110.2236855  69.3807469  64.5579077
 112.4364354  63.1894855  56.9456367 111.5020632  63.3096318  56.7761071
 112.6141022  62.2867322  56.6816377 107.9369542  56.5740551  59.0989628
 107.5667329  56.0211591  59.7870534 108.4328634  55.9698684  58.5464628
 115.8236905  59.0312175  57.4806401 116.2897357  59.8640166  57.4066704
 116.2744406  58.5657156  58.1851660 105.7658740  67.0338046  66.1944646
 106.4668200  67.6674529  66.3474040 105.2953855  67.3752778  65.4340285
 113.8913136  65.3755996  54.4792553 114.1672980  65.2612590  55.3886427
 113.0217635  64.9773481  54.4404726 113.7953568  51.3992761  61.5197302
 112.8816648  51.6296988  61.6879509 114.2246669  51.4831206  62.3711335
 113.5660026  59.5882653  64.0197196 112.9131477  59.8358561  63.3649649
 113.9440406  58.7746792  63.6859674 110.5267200  69.6242347  58.1225367
 110.7089595  68.8064003  58.5853119 111.3500186  69.8410039  57.6850257
 110.8609366  68.5510532  55.3840415 111.3897132  68.0402986  54.7710577
 111.1237585  68.2353062  56.2485948 109.6147599  60.3302465  70.5063233
 108.9388236  60.2296594  71.1765609 110.4375233  60.1741678  70.9699231
 101.3626458  66.5674401  63.1275749 101.9479895  65.8218089  63.2603653
 101.1651297  66.8778358  64.0112413 104.2165114  69.6025648  58.1438191
 103.5475489  70.0871776  57.6602231 104.0777983  69.8494869  59.0581570
  95.9544113  59.1380001  61.8480192  95.9928213  58.6043592  62.6417310
  95.4484406  58.6115207  61.2291169 108.3570382  71.6369392  64.7420849
 108.9088690  71.8001013  65.5069935 108.6976576  72.2273830  64.0700874
 103.3334875  53.9844542  65.3442734 103.3976202  54.8459373  64.9320132
 103.2701996  53.3718543  64.6115093 102.8087148  56.0567674  68.9915768
 103.4359187  55.6744752  69.6053293 101.9515067  55.8381876  69.3571461
 113.2081257  66.4630649  70.5969504 113.7521160  67.0760608  70.1024459
 112.6268101  67.0210228  71.1136517  99.5852691  57.8644103  54.9234123
  99.8806132  56.9554782  54.8701177  98.6840726  57.8431843  54.6015126
 111.4938769  69.5851367  61.7284532 111.3689909  68.7841107  61.2195477
 112.1517861  70.0797561  61.2398502 103.1146938  55.9400100  60.9061672
 102.3933523  56.5536068  60.7669145 103.9040193  56.4757865  60.8278318
 113.5573678  67.3860388  63.3564082 112.6104013  67.2665739  63.2842408
 113.9056451  66.4982886  63.4390343 105.9173251  53.2754526  67.1802324
 106.4407653  53.5216823  67.9428633 105.6985584  54.1074561  66.7605461
 101.3140532  55.5458201  55.0473448 100.9853238  54.6655580  54.8648554
 101.6679903  55.4905870  55.9349838 110.5620111  67.1813104  59.5568434
 110.4145074  66.2529811  59.7376004 111.3873605  67.2033195  59.0725509
 104.4282355  55.8331171  55.4148926 104.7678428  56.3617092  54.6927534
 104.8754476  56.1711577  56.1907493 114.1654233  68.0041663  60.6433307
 115.0900780  67.7984524  60.5057758 113.9969536  67.7558064  61.5522648
 107.1225796  54.2168222  64.8651994 106.7822617  53.4176035  65.2672674
 106.4164803  54.5169932  64.2928827 107.7742268  51.3017534  63.3179317
 108.5968337  50.8278012  63.1958207 108.0180332  52.0808018  63.8178003
 106.4150503  54.3305792  53.6142219 107.1358865  54.7087045  53.1105936
 105.7915807  55.0494669  53.7177197 110.5581625  55.0350941  54.5500551
 110.7745240  55.9175579  54.2489379 110.0775693  54.6437155  53.8206193
 105.2980847  57.9936655  61.1271296 105.1525428  58.3076958  62.0195577
 104.8206050  58.6121555  60.5742194 107.1577230  54.9839203  61.1752185
 107.1438798  54.0880296  60.8384483 107.8749658  54.9909866  61.8090471
 109.0103360  55.4176543  63.2205313 108.7521138  56.3393614  63.2189643
 108.4788401  55.0206977  63.9105777 113.9549549  68.5227330  55.9995398
 114.1286427  67.9573752  55.2469251 114.4478440  69.3228225  55.8174888
  99.7726509  60.5341999  64.0658957  99.2279977  61.3101807  64.1979231
 100.6505859  60.8812804  63.9078078 106.5614126  53.8653583  56.4439755
 106.6830037  52.9370229  56.6430643 106.2716168  53.8792269  55.5318071
 109.4305316  51.5508493  59.5806475 109.4527013  51.6147826  58.6258455
 109.8473375  50.7113002  59.7746981 119.8088940  61.2863753  57.6185698
 120.2520086  60.5371078  57.2204821 118.9315451  61.2773889  57.2359430
 114.9424722  67.8394094  53.0992296 115.6375626  68.4600787  53.3179611
 115.2847872  66.9889446  53.3744674 100.5592531  59.6611895  66.9589114
  99.8174267  59.8094531  67.5453744 100.2385275  59.9220161  66.0955863
 116.8416145  65.2893800  54.6279627 117.3667469  65.6281073  53.9028947
 116.7538497  64.3540815  54.4442762 108.5036194  69.2027874  66.7569504
 108.8123320  68.9577020  67.6292203 109.3011676  69.4074512  66.2688374
 108.5256806  71.3565783  58.9874880 108.0861796  70.8642162  59.6807737
 109.2764923  70.8138751  58.7466956 101.0049145  67.5477324  58.9899508
 101.8307164  67.2481096  58.6098152 100.6543197  66.7784946  59.4389297
 105.9730678  66.9003792  61.0597182 105.3510687  66.2374497  60.7599410
 106.6435545  66.9264924  60.3770830  99.2057750  65.4663651  59.9488442
  98.3689658  65.0385825  59.7672443  99.1781395  65.6596094  60.8859233
 106.0455205  55.3785580  70.6529688 106.0943361  56.2547703  70.2707458
 106.5877719  54.8362973  70.0801331 116.5310051  65.9226704  69.9330825
 115.7405595  65.9050842  69.3935325 116.2943405  66.4614997  70.6879862
 116.6507926  62.7719170  67.2463554 116.7005931  62.6069177  68.1879076
 116.5421849  61.9046429  66.8561434 105.5344185  65.4507716  54.5355643
 105.6832305  66.1343180  53.8822315 106.3410628  65.4312806  55.0505098
 113.9411688  58.7550098  68.5622860 114.8421551  58.6156563  68.2706858
 114.0159663  58.9204553  69.5021038 108.2754494  56.1316953  67.4076047
 107.4057803  56.4250519  67.1358635 108.5113974  56.7157398  68.1283310
 118.1526123  65.1916111  67.4905575 117.8610931  65.5546092  68.3269036
 117.5398254  64.4783120  67.3118907 119.3521805  62.7568991  60.0108145
 120.1868696  63.1958795  60.1745706 119.4880934  62.2807644  59.1916391
 116.4013311  60.3148726  65.9585633 116.8767433  60.5076372  65.1504485
 115.4778876  60.3707912  65.7129017 103.2896818  61.4772893  55.5416711
 103.0442860  60.5735223  55.7396922 103.4592732  61.4790044  54.5996189
 110.9793527  52.3496570  64.9241467 111.4975471  53.0857597  64.5987956
 110.6248660  52.6560563  65.7588226 102.5592465  57.2101251  53.0402873
 101.8661710  57.2845606  52.3842909 102.3144217  56.4461594  53.5624390
 111.2306122  48.7696852  60.4442364 111.5107875  48.1020041  61.0702790
 112.0156729  48.9625948  59.9317028 109.0339590  67.9455846  52.0067390
 108.4613557  68.5646033  51.5537862 109.6072384  68.4955208  52.5407312
 115.1014980  57.1914486  64.1913939 116.0532403  57.2912584  64.2126163
 114.9318430  56.3992755  64.7012023 113.1229359  54.2770069  64.3773340
 112.5279292  54.5575082  63.6819828 112.8379056  54.7663970  65.1490081
 112.2536850  68.2292996  53.1375972 113.1867523  68.1638558  53.3408848
 112.1660063  69.0649263  52.6790505 114.8824867  67.5458867  50.0979920
 114.8038498  67.2118730  50.9915678 115.7034533  68.0380634  50.0971392
 117.5803058  60.4120606  63.3056238 117.5479378  59.4736607  63.4915922
 118.1903681  60.4904643  62.5722063 109.4186389  59.2816659  49.3483442
 110.3645493  59.1522867  49.4171861 109.0400634  58.5431321  49.8252871
 117.7297546  57.2031649  63.3514522 117.2136595  56.4190106  63.1644450
 118.6137495  56.8750366  63.5161041 115.3908273  50.9472665  59.3110334
 115.1933094  50.6387753  60.1953666 116.0007979  51.6734304  59.4408264
 109.3025081  63.3334405  70.8084099 110.2228091  63.5113004  71.0024146
 109.2674664  62.3890450  70.6563799 107.6029306  57.2066635  49.2838328
 106.6960761  56.9099748  49.3601041 107.8805287  56.9096453  48.4172614
  98.5207246  58.5272999  59.7337374  98.2010031  57.6738307  59.4411748
  97.9740674  58.7421577  60.4895341 102.2987154  61.2435440  63.4506881
 102.5173163  62.1752547  63.4694914 102.7112928  60.8843414  64.2361684
 109.2191372  51.7503525  55.4382569 108.4092100  51.4050610  55.8137815
 109.9075788  51.4411069  56.0270181 111.1481920  50.8281572  57.0606866
 111.7012958  51.2477025  57.7196889 111.3852006  49.9017320  57.1029822
 107.1715019  56.8168645  72.8409630 107.0711746  57.7663002  72.7721721
 106.9536561  56.4886884  71.9685700 106.3728090  54.0653570  49.4250307
 107.2347254  54.3908469  49.6846124 106.5578435  53.2785066  48.9123373
  98.3895506  62.1475910  61.7030496  97.6958978  61.7329863  61.1900450
  99.1368497  62.1896447  61.1063915 114.5260727  52.9382097  56.5685530
 113.9459396  53.5966901  56.1863582 114.2596660  52.1159441  56.1572947
 112.9764293  52.3387155  58.7706850 113.4764072  52.4503689  57.9621169
 113.6199901  52.0348207  59.4107659 107.0346289  60.2465784  71.6574691
 106.5513371  61.0466144  71.8638580 107.1207228  60.2573729  70.7042135
 100.3032249  62.0794164  59.5796511 100.2802937  62.1781851  58.6278394
 100.6132885  62.9259315  59.9013677 102.9619627  64.1370319  63.6943125
 103.9162880  64.1054261  63.6273057 102.7632150  63.6760943  64.5093351
 103.5519009  62.7071435  66.2613923 104.3711898  63.2015514  66.2848760
 103.8255816  61.7903403  66.2331490 113.3085605  55.0982187  55.6241878
 112.4211460  55.3831838  55.4062073 113.7239594  54.9375951  54.7769155
 116.6600141  55.1228708  59.3396217 117.4360531  55.6125161  59.6120834
 115.9348275  55.5486762  59.7968087 119.0972700  55.8356327  60.3970158
 119.6917190  55.5952063  59.6863466 119.1699283  55.1163458  61.0243694
 101.3169855  69.6789938  60.7113323 101.1824323  68.9190339  60.1451321
 100.9001918  70.4030838  60.2442112 112.4528818  64.8626862  49.7189898
 113.1564668  65.0676864  50.3347554 111.7291467  65.4303624  49.9838982
 113.2826629  60.6136723  55.8392168 113.2261830  61.0705275  54.9999801
 113.8354971  59.8527408  55.6615011 117.0931435  56.4026455  56.6642288
 116.8368369  56.0023091  57.4950496 116.4684303  57.1170249  56.5392427
 104.4738981  70.5759255  60.9231766 104.3571365  71.5204688  60.8210456
 103.6531428  70.2732817  61.3117565 114.3615516  65.3009391  51.7688358
 115.1961120  64.8690590  51.5865833 114.1999859  65.1291405  52.6965253
 114.0161408  61.8041504  53.1344698 113.9610212  61.6385776  52.1933142
 113.3907463  62.5117537  53.2906887  98.8053923  57.0409569  66.9606120
  99.4512787  56.5308523  67.4493345  98.5971074  57.7778250  67.5349545
 111.3307315  64.1090416  72.4598260 112.1998475  64.2831069  72.0984895
 110.8514067  64.9284833  72.3373990 107.3257533  51.3049613  52.7130016
 107.3136203  52.2491453  52.8698287 108.2180955  51.1219759  52.4189477
 105.4993495  71.2287517  64.1387694 106.4020742  71.2611128  64.4554189
 105.2730865  70.2987968  64.1534030 107.2547097  69.9818504  60.7997773
 106.3042728  69.9820365  60.6862145 107.5579584  69.2351238  60.2833807
 111.1409653  47.8992390  56.9675953 110.3742049  47.3450877  57.1132635
 111.5520358  47.9714259  57.8290104 103.1451414  54.1877186  71.0581134
 104.0082876  53.8313991  71.2684459 102.5716825  53.8491081  71.7456538
 115.6576313  77.6241947  57.7901951 115.0941178  77.5331884  57.0218238
 115.5428708  76.8041851  58.2704443 120.2809280  76.9241322  67.7591265
 120.2697921  76.5294120  66.8871769 120.4429920  76.1907395  68.3525037
 113.2040745  79.1193138  60.6286171 113.9962037  78.7783963  60.2132470
 113.4437395  79.2288113  61.5488324 115.1631499  78.3802052  53.5003550
 115.9362375  77.8331039  53.3616426 115.5156898  79.2446301  53.7118011
 117.0016541  79.7078434  66.7070449 116.7106407  80.6124065  66.5917115
 117.6373526  79.7494962  67.4214519 117.9272748  77.0855282  63.2971809
 118.5236320  76.8611305  62.5828772 117.9847720  76.3440028  63.8997257
 117.4997777  74.5394718  51.1322000 117.7523297  74.0176239  50.3705463
 116.5622336  74.3760863  51.2348683 117.2194065  76.4422824  53.3346375
 117.1030323  75.7667727  54.0027459 117.3296325  75.9555198  52.5178528
 119.5625606  75.9032971  57.0393064 119.1983813  75.3763592  57.7505985
 120.4192722  75.5131440  56.8659549 119.2031093  70.9322870  52.0354412
 119.3705496  71.8003107  52.4024884 119.0128262  71.0950152  51.1115702
 115.4118908  75.8453646  59.7356947 114.4869404  75.7129860  59.9434639
 115.6603321  76.6247865  60.2326890 119.1820314  73.3880528  53.0201079
 119.0619939  73.8337579  53.8586560 118.4872902  73.7365846  52.4614617
 112.7727719  75.4886920  60.5700736 112.9020100  75.7421399  61.4840148
 112.0925170  76.0814628  60.2505391 116.9427206  86.1584170  56.6691211
 116.8651236  87.1091995  56.7479691 116.3388850  85.8130042  57.3266137
 119.4344436  73.3312035  69.3252577 118.6577770  73.8905955  69.3155442
 120.0734999  73.8168818  69.8467448 117.6890808  76.1397489  68.8870544
 118.4305493  76.6782533  68.6105368 116.9827794  76.7663777  69.0442096
 119.5177218  73.2199236  64.8576263 120.3638413  73.6438649  65.0010912
 119.4575856  72.5632860  65.5514826 119.0402924  78.5802228  58.5045080
 119.5041270  78.8589931  57.7149702 118.7759723  77.6785672  58.3218171
 115.9327005  78.1273709  61.4424843 116.5028363  78.5560978  60.8042328
 116.5235117  77.8456294  62.1409029 117.9771810  74.7025380  55.3134645
 118.6795854  75.1546424  55.7808571 117.6452439  74.0609199  55.9414538
 116.4252172  73.2937137  69.6885854 115.7950833  73.9753418  69.9221251
 116.3188260  73.1820218  68.7438993 111.7197144  72.9608933  60.6151779
 110.9296198  73.2166461  60.1391889 112.2108392  73.7757271  60.7203819
 113.6711890  73.3253512  57.5735255 112.8743053  73.4372206  58.0918751
 113.4437482  73.6640164  56.7076146 119.5017557  79.8498215  65.5217770
 119.5661990  80.3118622  66.3575942 118.7928481  79.2195580  65.6500080
 110.0034847  73.2139423  63.0466769 110.2542886  74.0986433  63.3124345
 110.5394396  73.0344025  62.2741861 119.2165575  81.5166323  55.3896750
 119.0811250  82.3617858  55.8181598 119.7575388  81.7185600  54.6262684
 115.7032915  67.5957903  72.0511105 115.3099860  67.0424101  72.7258750
 116.5199055  67.9068481  72.4417623 112.6694972  79.0341761  55.9624675
 113.1819493  79.8285011  56.1130240 113.3217685  78.3368051  55.8958277
 114.4789857  82.1507517  58.0447429 114.6556486  83.0725482  57.8568412
 115.2746691  81.8365936  58.4741808 118.6200876  69.0115782  69.6431362
 119.3610589  69.6122935  69.5635825 118.8518799  68.2693419  69.0849405
 113.7642214  74.1972149  67.9209592 113.6495729  73.2957406  68.2216691
 112.9086731  74.4435846  67.5694408 115.6021173  83.6685691  64.0457771
 116.1528598  83.5402754  63.2734765 114.7632649  83.9680580  63.6952664
 119.3988344  79.9336819  68.3902002 119.9316680  79.1725107  68.1601310
 118.8702425  79.6410470  69.1326156 110.6343889  77.3630415  56.7384246
 111.4719111  77.7727423  56.5217954 110.8122157  76.4229857  56.7084440
 117.8897465  67.4940269  60.8911059 118.7550462  67.2983078  60.5316948
 117.9574974  67.2650621  61.8180415 115.4959784  69.7242477  58.2627426
 116.0703536  69.5017659  57.5300618 116.0830766  69.7931172  59.0156027
 115.8229371  71.7546938  52.2823311 114.9866683  72.0921625  52.6032586
 115.6834141  71.6195918  51.3450448 117.7982452  66.5983726  56.9902495
 117.1446864  66.2832743  56.3659110 117.7562926  65.9759467  57.7162318
 118.9093657  76.8803021  48.9055787 118.0020718  76.6492275  49.1046936
 119.4064689  76.0840641  49.0929769 120.0881890  76.9815616  53.4279777
 119.1793109  76.6974649  53.5252247 120.1176974  77.4014695  52.5683084
 110.6570060  74.7021130  57.4094979 110.4594460  74.1090491  56.6846046
 110.1016724  74.3973341  58.1270918 118.6366784  74.5944237  59.5289572
 118.6915394  73.6418073  59.4532049 117.8257986  74.7503676  60.0130871
 116.5759144  73.2121297  57.2879951 115.7627010  73.5115467  57.6945143
 117.0718138  72.8176985  58.0054434 118.7267722  83.2079054  59.2214216
 118.6843901  83.4339900  58.2922748 119.6430421  82.9742428  59.3700017
 116.0673219  70.7839652  62.9041186 116.7072598  70.6428411  62.2064150
 115.2350749  70.4974165  62.5279788 116.8433523  80.0842083  59.0176179
 117.6374121  79.5892403  58.8158754 116.1325215  79.5559946  58.6543884
 113.1516286  74.2285164  55.0935931 112.2213874  74.1669620  55.3105894
 113.2473758  73.7061117  54.2972573 113.0701835  70.7539977  57.6814173
 113.3308652  71.6685310  57.5723334 113.8919007  70.2864420  57.8310786
 114.5426760  72.1677734  64.8512998 115.2149814  71.9595096  64.2025647
 113.7156547  71.9699820  64.4118230 119.4204799  80.6571105  62.6974016
 119.2815884  80.2889889  63.5699954 118.6319395  81.1718744  62.5257974
 120.0152951  85.7580201  54.0399552 120.1904706  85.2868244  54.8545175
 119.3285739  86.3845967  54.2680813 114.9454258  75.4420337  65.6115435
 114.8074056  74.7100576  66.2126974 115.8559181  75.3529237  65.3299623
 117.5736558  75.1540297  65.0999114 118.2836177  74.5133489  65.0585733
 117.5305867  75.4053191  66.0225295 116.2865492  72.1405514  66.9194754
 115.7502849  71.6896253  67.5716350 115.6982201  72.2751423  66.1765218
 114.5814036  88.9069564  60.8139413 114.8210634  89.5388088  61.4918431
 113.7383232  88.5557604  61.1004772 115.6967751  71.5994166  49.4821218
 114.8197218  71.4782967  49.1183464 116.1725504  70.8080244  49.2300106
 107.2169891  76.3871326  59.5762725 107.9040931  76.0733056  58.9883740
 107.0618020  77.2912690  59.3029976 112.0204614  71.2761522  64.0047748
 111.9362802  70.6687192  63.2698158 111.1987320  71.7670540  64.0057245
 119.0941898  84.7148686  63.2180917 119.0212069  85.5203658  63.7300221
 118.6519291  84.9140652  62.3928938 118.8831677  83.9520456  56.7283738
 118.0999199  84.4942136  56.8221963 119.5824423  84.4694436  57.1277979
 118.7763296  71.9032469  59.0989628 118.4061084  71.3503509  59.7870534
 119.2722389  71.2990602  58.5464628 116.6052495  82.3629964  66.1944646
 117.3061954  82.9966447  66.3474040 116.1347610  82.7044695  65.4340285
 112.2020213  81.8966319  63.1275749 112.7873650  81.1510007  63.2603653
 112.0045051  82.2070275  64.0112413 115.0558868  84.9317566  58.1438191
 114.3869243  85.4163694  57.6602231 114.9171738  85.1786787  59.0581570
 106.7937868  74.4671919  61.8480192 106.8321967  73.9335510  62.6417310
 106.2878160  73.9407124  61.2291169 119.1964137  86.9661310  64.7420849
 119.7482445  87.1292931  65.5069935 119.5370330  87.5565747  64.0700874
 114.1728630  69.3136459  65.3442734 114.2369956  70.1751290  64.9320132
 114.1095750  68.7010461  64.6115093 113.6480902  71.3859592  68.9915768
 114.2752941  71.0036669  69.6053293 112.7908821  71.1673794  69.3571461
 110.4246445  73.1936021  54.9234123 110.7199886  72.2846700  54.8701177
 109.5234481  73.1723761  54.6015126 113.9540692  71.2692018  60.9061672
 113.2327278  71.8827985  60.7669145 114.7433948  71.8049782  60.8278318
 116.7567006  68.6046444  67.1802324 117.2801408  68.8508741  67.9428633
 116.5379339  69.4366479  66.7605461 112.1534287  70.8750119  55.0473448
 111.8246993  69.9947498  54.8648554 112.5073657  70.8197787  55.9349838
 115.2676110  71.1623089  55.4148926 115.6072182  71.6909010  54.6927534
 115.7148230  71.5003495  56.1907493 117.9619551  69.5460139  64.8651994
 117.6216371  68.7467952  65.2672674 117.2558557  69.8461850  64.2928827
 118.6136023  66.6309452  63.3179317 119.4362092  66.1569930  63.1958207
 118.8574086  67.4099935  63.8178003 117.2544257  69.6597710  53.6142219
 117.9752620  70.0378963  53.1105936 116.6309561  70.3786587  53.7177197
 116.1374601  73.3228572  61.1271296 115.9919182  73.6368875  62.0195577
 115.6599805  73.9413473  60.5742194 117.9970984  70.3131120  61.1752185
 117.9832553  69.4172214  60.8384483 118.7143412  70.3201784  61.8090471
 119.8497115  70.7468461  63.2205313 119.5914893  71.6685531  63.2189643
 119.3182155  70.3498895  63.9105777 110.6120263  75.8633917  64.0658957
 110.0673732  76.6393725  64.1979231 111.4899613  76.2104721  63.9078078
 117.4007880  69.1945501  56.4439755 117.5223791  68.2662147  56.6430643
 117.1109923  69.2084187  55.5318071 111.3986285  74.9903813  66.9589114
 110.6568021  75.1386448  67.5453744 111.0779030  75.2512079  66.0955863
 119.3429948  84.5319791  66.7569504 119.6517074  84.2868938  67.6292203
 120.1405430  84.7366430  66.2688374 119.3650560  86.6857701  58.9874880
 118.9255550  86.1934080  59.6807737 120.1158677  86.1430669  58.7466956
 111.8442899  82.8769242  58.9899508 112.6700919  82.5773014  58.6098152
 111.4936951  82.1076864  59.4389297 116.8124432  82.2295710  61.0597182
 116.1904441  81.5666415  60.7599410 117.4829299  82.2556842  60.3770830
 110.0451504  80.7955568  59.9488442 109.2083412  80.3677743  59.7672443
 110.0175149  80.9888012  60.8859233 116.8848960  70.7077498  70.6529688
 116.9337115  71.5839621  70.2707458 117.4271474  70.1654891  70.0801331
 116.3737939  80.7799633  54.5355643 116.5226059  81.4635098  53.8822315
 117.1804383  80.7604723  55.0505098 119.1148248  71.4608870  67.4076047
 118.2451558  71.7542436  67.1358635 119.3507728  72.0449315  68.1283310
 114.1290572  76.8064811  55.5416711 113.8836614  75.9027141  55.7396922
 114.2986487  76.8081961  54.5996189 113.3986220  72.5393169  53.0402873
 112.7055465  72.6137523  52.3842909 113.1537972  71.7753512  53.5624390
 119.8733345  83.2747764  52.0067390 119.3007312  83.8937951  51.5537862
 120.4466138  83.8247125  52.5407312 118.4423060  72.5358553  49.2838328
 117.5354516  72.2391666  49.3601041 118.7199041  72.2388371  48.4172614
 109.3601001  73.8564916  59.7337374 109.0403785  73.0030224  59.4411748
 108.8134429  74.0713494  60.4895341 113.1380908  76.5727357  63.4506881
 113.3566918  77.5044465  63.4694914 113.5506682  76.2135332  64.2361684
 118.0108774  72.1460563  72.8409630 117.9105500  73.0954920  72.7721721
 117.7930316  71.8178802  71.9685700 117.2121845  69.3945488  49.4250307
 118.0741009  69.7200386  49.6846124 117.3972189  68.6076984  48.9123373
 109.2289261  77.4767828  61.7030496 108.5352732  77.0621781  61.1900450
 109.9762252  77.5188364  61.1063915 117.8740044  75.5757702  71.6574691
 117.3907125  76.3758062  71.8638580 117.9600983  75.5865647  70.7042135
 111.1426003  77.4086082  59.5796511 111.1196691  77.5073769  58.6278394
 111.4526640  78.2551232  59.9013677 113.8013381  79.4662237  63.6943125
 114.7556635  79.4346179  63.6273057 113.6025905  79.0052860  64.5093351
 114.3912763  78.0363353  66.2613923 115.2105652  78.5307431  66.2848760
 114.6649571  77.1195321  66.2331490 112.1563610  85.0081856  60.7113323
 112.0218078  84.2482257  60.1451321 111.7395672  85.7322756  60.2442112
 115.3132736  85.9051173  60.9231766 115.1965120  86.8496606  60.8210456
 114.4925182  85.6024735  61.3117565 109.6447677  72.3701487  66.9606120
 110.2906541  71.8600440  67.4493345 109.4364829  73.1070168  67.5349545
 118.1651288  66.6341531  52.7130016 118.1529958  67.5783371  52.8698287
 119.0574710  66.4511677  52.4189477 116.3387250  86.5579435  64.1387694
 117.2414497  86.5903045  64.4554189 116.1124620  85.6279886  64.1534030
 118.0940852  85.3110422  60.7997773 117.1436483  85.3112283  60.6862145
 118.3973338  84.5643156  60.2833807 113.9845168  69.5169104  71.0581134
 114.8476630  69.1605908  71.2684459 113.4110579  69.1782998  71.7456538
 118.0563646  91.7163243  59.5762725 118.7434686  91.4024973  58.9883740
 117.9011775  92.6204608  59.3029976 117.6331622  89.7963837  61.8480192
 117.6715722  89.2627427  62.6417310 117.1271915  89.2699042  61.2291169
 120.1994755  89.1856834  59.7337374 119.8797539  88.3322142  59.4411748
 119.6528183  89.4005412  60.4895341  73.5852189   1.8478622  43.3936517
  73.5076219   2.7986447  43.4724998  72.9813833   1.5024494  44.0511443
  71.2239019   4.5964016  47.5384719  71.4635617   5.2282540  48.2163738
  70.3808216   4.2452056  47.8250078  75.8389120   2.6555762  51.4666156
  76.3907428   2.8187383  52.2315241  76.1795313   3.2460199  50.7946181
  68.7988593   0.6976308  47.4358630  68.6643061  -0.0623291  46.8696628
  68.3820655   1.4217208  46.9687418  71.9557719   1.5945625  47.6477072
  71.8390103   2.5391057  47.5455762  71.1350165   1.2919187  48.0362871
  72.9812233   2.2473887  50.8633001  73.8839480   2.2797497  51.1799496
  72.7549603   1.3174338  50.8779336  83.1395051   8.6428316  44.5147257
  82.5759916   8.5518253  43.7463545  83.0247446   7.8228221  44.9949750
  87.7628018   7.9427692  54.4836572  87.7516659   7.5480490  53.6117075
  87.9248657   7.2093764  55.0770343  80.6859483  10.1379508  47.3531478
  81.4780774   9.7970333  46.9377777  80.9256133  10.2474483  48.2733631
  88.7194609  12.3099284  39.8261722  88.0682589  12.8953364  39.4395736
  89.5138972  12.8405479  39.8856760  82.6450237   9.3988421  40.2248857
  83.4181113   8.8517408  40.0861732  82.9975635  10.2632671  40.4363318
  84.4835279  10.7264803  53.4315756  84.1925145  11.6310434  53.3162422
  85.1192263  10.7681331  54.1459825  85.4091486   8.1041652  50.0217115
  86.0055058   7.8797674  49.3074078  85.4666457   7.3626397  50.6242563
  90.1969874   9.9989716  40.3630706  89.5615707  10.0724342  41.0751611
  89.8667281  10.5883315  39.6849786  84.7012803   7.4609193  40.0591681
  84.5849061   6.7854097  40.7272766  84.8115063   6.9741567  39.2423834
  89.4425164  10.4126219  50.4265549  89.1425887  11.3151258  50.3181357
  89.0976224  10.1458402  51.2786702  82.8937646   6.8640016  46.4602254
  81.9688142   6.7316230  46.6679946  83.1422059   7.6434235  46.9572196
  80.2546457   6.5073289  47.2946043  80.3838838   6.7607768  48.2085455
  79.5743908   7.1000997  46.9750698  84.4245944  17.1770539  43.3936517
  84.3469974  18.1278364  43.4724998  83.8207588  16.8316412  44.0511443
  85.1709546   7.1583858  55.6115851  85.9124230   7.6968902  55.3350675
  84.4646532   7.7850147  55.7687403  90.6464886   9.3012999  54.2088013
  91.0548242   8.8595409  53.4642645  89.9242147   8.7265626  54.4622205
  90.9693700   9.8614189  47.9640301  90.3402563  10.0259903  47.2616369
  90.5819362  10.2755799  48.7351265  94.8482932  10.7968627  45.3184665
  94.1633970  11.1767528  44.7681699  94.9326782  11.4063954  46.0516613
  86.5221662   9.5988597  45.2290387  86.9860008   9.8776300  44.4395009
  86.2578460   8.6972042  45.0463477  83.4145743   9.1460079  48.1670150
  83.9847100   9.5747347  47.5287634  84.0053855   8.8642664  48.8654335
  79.2015882   3.9795302  47.3397085  78.4114936   4.2352831  46.8637196
  79.6927130   4.7943640  47.4449126  93.2179692  11.3200541  50.0902366
  94.0397135  10.9180729  49.8085048  93.2142095  11.2168776  51.0418482
  81.1530628   4.3439882  44.2980562  80.3561791   4.4558576  44.8164058
  80.9256220   4.6826534  43.4321452  86.9836295  10.8684585  52.2463077
  87.0480728  11.3304992  53.0821248  86.2747219  10.2381950  52.3745386
  77.4853585   4.2325793  49.7712076  77.7361624   5.1172803  50.0369652
  78.0213134   4.0530394  48.9987168  86.6984313  12.5352692  42.1142057
  86.5629988  13.3804228  42.5426905  87.2394125  12.7371970  41.3507991
  80.1513710  10.0528130  42.6869982  80.6638231  10.8471381  42.8375547
  80.8036423   9.3554421  42.6203583  81.9608595  13.1693887  44.7692735
  82.1375223  14.0911851  44.5813719  82.7565428  12.8552306  45.1987115
  81.2460952   5.2158518  54.6454898  81.1314467   4.3143776  54.9461997
  80.3905469   5.4622215  54.2939715  88.3252789  13.1576259  56.2442399
  87.8816643  12.3712637  55.9263303  88.9870003  13.3455409  55.5786290
  83.0839910  14.6872060  50.7703078  83.6347336  14.5589124  49.9980071
  82.2451386  14.9866949  50.4197970  90.4234027  13.4379059  54.2723800
  90.4052503  14.2587940  53.7804069  91.3453947  13.3133134  54.4973941
  86.8807081  10.9523188  55.1147309  87.4135418  10.1911476  54.8846617
  86.3521163  10.6596840  55.8571463  78.1162627   8.3816785  43.4629553
  78.9537849   8.7913793  43.2463260  78.2940895   7.4416227  43.4329746
  88.2459794  10.0809181  42.6266121  87.7181156   9.3461940  42.3139358
  87.7447297  10.8583857  42.3806089  86.3912394   7.8989391  35.6301094
  85.4839456   7.6678644  35.8292243  86.8883426   7.1027010  35.8175075
  89.2980473  16.6086898  38.5497780  88.6242172  16.9118595  39.1582738
  89.6846295  17.4115978  38.2003237  87.5700628   8.0001986  40.1525084
  86.6611847   7.7161019  40.2497554  87.5995712   8.4201064  39.2928391
  92.8019895  11.6108575  43.9216251  92.3482222  10.7699485  43.9781442
  92.1713862  12.2469974  44.2591031  91.2452834  13.4485072  44.8566069
  91.5375809  14.0090129  44.1378435  91.7551455  13.7413633  45.6119229
  78.1388798   5.7207500  44.1340286  77.9413198   5.1276861  43.4091353
  77.5835462   5.4159710  44.8516225  87.2676716   9.5410729  37.4913162
  86.8296146   8.8246588  37.0318800  88.0087156   9.7686844  36.9298254
  86.2086460  14.2265423  45.9459523  86.1662638  14.4526269  45.0168055
  87.1249159  13.9928798  46.0945324  95.4119210   9.8844454  48.5600752
  95.8455717   9.7919743  49.4083806  96.1250791   9.8601954  47.9220768
  84.3252260  11.1028452  45.7421485  85.1192859  10.6078772  45.5404060
  83.6143953  10.5746315  45.3789191  89.1447105  13.4846548  50.0933853
  89.1984127  14.0537484  50.8611569  88.2761886  13.6548433  49.7287890
  80.6335024   5.2471534  41.8181238  79.7032612   5.1855989  42.0351200
  80.7292496   4.7247487  41.0217879  91.3349868  10.0774897  56.6674518
  91.1835375   9.8485449  55.7504602  91.3254548  11.0345498  56.6805863
  88.1035205   7.6506810  51.6520785  89.0327265   7.8017969  51.4789752
  87.6826235   7.7390830  50.7969431  86.9023536  11.6757474  49.4219323
  86.7634622  11.3076258  50.2945261  86.1138133  12.1905114  49.2503280
  87.4971688  16.7766571  40.7644859  87.6723444  16.3054614  41.5790482
  86.8104476  17.4032337  40.9926120  88.4528752  11.0539077  46.8108160
  88.1178584  11.0139847  47.7065810  87.9532697  10.3883793  46.3378571
  82.4272996   6.4606707  52.3360741  82.2892793   5.7286946  52.9372280
  83.3377919   6.3715607  52.0544929  91.3887943   8.3995111  37.0845220
  90.7717114   7.6741939  36.9878273  90.9204432   9.1604471  36.7412294
  93.0442075  13.1094019  54.7451000  92.9854621  12.4253240  54.0781583
  93.4461593  13.8513009  54.2931626  82.0632774  19.9255933  47.5384719
  82.3029372  20.5574457  48.2163738  81.2201970  19.5743973  47.8250078
  93.0459482  11.0733603  52.9764980  92.1586261  10.7359525  53.0991379
  93.6158033  10.3416635  53.2133745  74.6988629   7.4057695  46.3008031
  75.3859669   7.0919425  45.7129047  74.5436758   8.3099060  46.0275283
  86.5760636  15.7335056  49.9426223  86.5030807  16.5390027  50.4545528
  86.1338029  15.9327022  49.1174245  86.3650415  14.9706826  43.4529045
  85.5817937  15.5128506  43.5467269  87.0643160  15.4880805  43.8523286
  89.0359319  15.6321890  52.0984382  89.7487291  16.2669355  52.0260283
  88.5449348  15.7285756  51.2824384  90.7576846   9.5373142  43.6701674
  89.8233125   9.6574605  43.5006378  90.9353514   8.6345609  43.4061683
  84.0871233  13.3816333  52.9189953  84.7880692  14.0152816  53.0719347
  83.6166348  13.7231065  52.1585592  92.2125628  11.7234283  41.2037860
  92.4885472  11.6090878  42.1131734  91.3430127  11.3251768  41.1650033
  88.8479692  15.9720634  44.8470673  89.0302087  15.1542290  45.3098426
  89.6712678  16.1888326  44.4095563  89.1821858  14.8988819  42.1085722
  89.7109624  14.3881274  41.4955884  89.4450078  14.5831349  42.9731255
  79.6838951  12.9152688  49.8521055  80.2692387  12.1696376  49.9848960
  79.4863789  13.2256645  50.7357719  82.5377606  15.9503936  44.8683498
  81.8687981  16.4350063  44.3847538  82.3990476  16.1973156  45.7826876
  74.2756605   5.4858289  48.5725498  74.3140705   4.9521879  49.3662617
  73.7696898   4.9593494  47.9536476  86.6782874  17.9847679  51.4666156
  87.2301182  18.1479301  52.2315241  87.0189068  18.5752117  50.7946181
  91.5293749  12.8108937  57.3214811  92.0733653  13.4238895  56.8269765
  90.9480594  13.3688515  57.8381824  77.9065183   4.2122391  41.6479430
  78.2018624   3.3033069  41.5946484  77.0053219   4.1910130  41.3260432
  89.8151262  15.9329655  48.4529838  89.6902401  15.1319395  47.9440784
  90.4730353  16.4275848  47.9643808  91.8786170  13.7338675  50.0809388
  90.9316506  13.6144026  50.0087715  92.2268943  12.8461173  50.1635650
  88.8832603  13.5291391  46.2813741  88.7357566  12.6008098  46.4621311
  89.7086097  13.5511482  45.7970816  92.4866725  14.3519950  47.3678613
  93.4113273  14.1462811  47.2303064  92.3182029  14.1036351  48.2767955
  92.2762041  14.8705617  42.7240705  92.4498919  14.3052040  41.9714557
  92.7690933  15.6706512  42.5420195  78.0939001   6.8820286  50.7904264
  77.5492469   7.6580094  50.9224538  78.9718351   7.2291091  50.6323385
  93.2637214  14.1872382  39.8237603  93.9588119  14.8079074  40.0424918
  93.6060364  13.3367733  40.0989981  78.8805023   6.0090183  53.6834420
  78.1386759   6.1572818  54.2699051  78.5597767   6.2698448  52.8201170
  95.1628637  11.6372087  41.3524934  95.6879961  11.9759360  40.6274254
  95.0750990  10.7019102  41.1688068  86.8248686  15.5506161  53.4814810
  87.1335812  15.3055308  54.3537510  87.6224168  15.7552799  52.9933681
  86.8469298  17.7044070  45.7120187  86.4074288  17.2120449  46.4053044
  87.5977415  17.1617038  45.4712262  79.3261637  13.8955611  45.7144815
  80.1519657  13.5959383  45.3343459  78.9755689  13.1263234  46.1634604
  84.2943170  13.2482080  47.7842489  83.6723179  12.5852785  47.4844717
  84.9648037  13.2743211  47.1016136  77.5270242  11.8141938  46.6733749
  76.6902150  11.3864112  46.4917750  77.4993887  12.0074381  47.6104540
  94.8522543  12.2704991  56.6576132  94.0618087  12.2529130  56.1180631
  94.6155898  12.8093284  57.4125168  83.8556677  11.7986003  41.2600949
  84.0044797  12.4821467  40.6067622  84.6623120  11.7791093  41.7750405
  96.4738615  11.5394399  54.2150882  96.1823423  11.9024379  55.0514343
  95.8610746  10.8261407  54.0364214  81.6109310   7.8251180  42.2662018
  81.3655352   6.9213510  42.4642228  81.7805224   7.8268331  41.3241496
  87.3552082  14.2934133  38.7312697  86.7826050  14.9124320  38.2783169
  87.9284876  14.8433495  39.2652619  90.5749342  14.5771283  39.8621279
  91.5080015  14.5116845  40.0654154  90.4872555  15.4127550  39.4035812
  93.2037359  13.8937154  36.8225226  93.1250990  13.5597017  37.7160984
  94.0247026  14.3858922  36.8216699  87.6237573   9.6812692  57.5329406
  88.5440583   9.8591291  57.7269453  87.5887156   8.7368738  57.3809105
  76.8419738   4.8751286  46.4582681  76.5222523   4.0216594  46.1657055
  76.2953167   5.0899864  47.2140648  80.6199646   7.5913727  50.1752187
  80.8385656   8.5230835  50.1940221  81.0325420   7.2321701  50.9606991
  76.7107998   8.4954197  48.4275802  76.0171470   8.0808150  47.9145757
  77.4580989   8.5374734  47.8309221  85.3558781   6.5944071  58.3819998
  84.8725863   7.3944432  58.5883887  85.4419720   6.6052016  57.4287442
  78.6244741   8.4272451  46.3041817  78.6015429   8.5260138  45.3523700
  78.9345377   9.2737602  46.6258983  81.2832119  10.4848606  50.4188432
  82.2375372  10.4532548  50.3518363  81.0844642  10.0239230  51.2338658
  81.8731501   9.0549722  52.9859229  82.6924390   9.5493801  53.0094067
  82.1468309   8.1381690  52.9576797  79.6382348  16.0268226  47.4358630
  79.5036816  15.2668627  46.8696628  79.2214410  16.7509126  46.9687418
  90.7741311  11.2105149  36.4435205  91.4777161  11.4155152  37.0592860
  90.0503959  11.7781911  36.7084288  82.7951474  16.9237543  47.6477072
  82.6783858  17.8682975  47.5455762  81.9743920  16.6211104  48.0362871
  92.6828008  11.6487678  38.4933665  93.5173612  11.2168877  38.3111140
  92.5212351  11.4769692  39.4210559  89.6519807  10.4568704  59.1843567
  90.5210967  10.6309356  58.8230202  89.1726559  11.2763120  59.0619296
  83.8205988  17.5765805  50.8633001  84.7233234  17.6089415  51.1799496
  83.5943358  16.6466256  50.8779336  85.5759590  16.3296791  47.5243079
  84.6255221  16.3298653  47.4107451  85.8792076  15.5829526  47.0079114
 101.3112283  22.1657330  48.5888842 101.9490693  22.0464077  47.8852182
 101.1933126  23.1138173  48.6476794  98.1201989  22.1184758  48.5250366
  97.7820501  22.0025822  47.6370901  98.9891758  21.7175923  48.5051372
  93.9788805  23.9720234  44.5147257  93.4153670  23.8810171  43.7463545
  93.8641200  23.1520138  44.9949750  98.6021772  23.2719609  54.4836572
  98.5910413  22.8772408  53.6117075  98.7642412  22.5385682  55.0770343
  91.5253237  25.4671426  47.3531478  92.3174529  25.1262250  46.9377777
  91.7649887  25.5766401  48.2733631  99.5588364  27.6391202  39.8261722
  98.9076344  28.2245282  39.4395736 100.3532727  28.1697397  39.8856760
  93.4843991  24.7280339  40.2248857  94.2574867  24.1809326  40.0861732
  93.8369390  25.5924588  40.4363318  95.3229034  26.0556721  53.4315756
  95.0318900  26.9602352  53.3162422  95.9586018  26.0973249  54.1459825
  96.2485240  23.4333570  50.0217115  96.8448813  23.2089592  49.3074078
  96.3060212  22.6918315  50.6242563  95.8210269  20.8873005  37.8567306
  96.0735789  20.3654526  37.0950769  94.8834828  20.7239150  37.9593990
 100.8653552  19.8908783  45.6642050 101.6516641  19.4728207  45.3132467
 101.1292256  20.7954876  45.8323698 101.0363629  25.3281634  40.3630706
 100.4009462  25.4016260  41.0751611 100.7061035  25.9175232  39.6849786
 106.2661979  19.8284017  46.5675028 106.9987151  19.2583233  46.8012858
 105.5101334  19.4405617  47.0081534  95.5406558  22.7901111  40.0591681
  95.4242816  22.1146014  40.7272766  95.6508817  22.3033485  39.2423834
  97.8838098  22.2511258  43.7638371  97.5196306  21.7241879  44.4751292
  98.7405214  21.8609727  43.5904856 103.7887399  13.5405591  51.0269637
 103.4570724  14.4101002  50.8030852 103.1933013  13.2241875  51.7063667
  97.5243585  17.2801158  38.7599719  97.6917988  18.1481394  39.1270190
  97.3340755  17.4428439  37.8361008 100.2818919  25.7418137  50.4265549
  99.9819642  26.6443175  50.3181357  99.9369978  25.4750320  51.2786702
  93.7331400  22.1931933  46.4602254  92.8081897  22.0608148  46.6679946
  93.9815813  22.9726153  46.9572196 103.6816062  18.2600677  48.1062987
 102.7732940  18.1916085  47.8121748 103.6303658  18.7372622  48.9344812
  97.5032806  19.7358815  39.7446386  97.3832432  20.1815866  40.5831866
  96.8085395  20.0844133  39.1859924  91.0940211  21.8365207  47.2946043
  91.2232592  22.0899686  48.2085455  90.4137662  22.4292915  46.9750698
  95.2639698  32.5062457  43.3936517  95.1863728  33.4570282  43.4724998
  94.6601342  32.1608329  44.0511443  97.7556928  19.6790322  56.0497884
  96.9790262  20.2384243  56.0400749  98.3947491  20.1647105  56.5712754
 105.5477709  16.4617115  49.8840861 104.9052089  16.7549648  49.2380655
 105.0432637  16.3470036  50.6894057 103.2017873  20.2080288  40.5726720
 104.1135729  20.4407675  40.3974418 102.6927520  20.7917333  40.0101799
  96.0103301  22.4875776  55.6115851  96.7517985  23.0260820  55.3350675
  95.3040286  23.1142065  55.7687403 101.4858640  24.6304916  54.2088013
 101.8941996  24.1887327  53.4642645 100.7635902  24.0557544  54.4622205
  97.8389710  19.5677523  51.5821570  98.6850905  19.9916937  51.7256219
  97.7788348  18.9111147  52.2760133 101.8087455  25.1906107  47.9640301
 101.1796317  25.3551821  47.2616369 101.4213117  25.6047716  48.7351265
 105.6876687  26.1260545  45.3184665 105.0027725  26.5059446  44.7681699
 105.7720536  26.7355871  46.0516613 100.9889156  17.2281891  53.2402743
 100.7450087  17.9823952  52.7037019 101.2649086  17.6067239  54.0749990
 102.9427618  23.7720504  51.9180009 103.1544514  24.4152264  51.2414390
 102.8957367  22.9382820  51.4501939 100.5453847  16.3838324  48.8216581
  99.6838326  16.6819578  49.1133318 100.5716282  16.6008723  47.8897614
  97.3615417  24.9280515  45.2290387  97.8253762  25.2068218  44.4395009
  97.0972215  24.0263960  45.0463477  94.2539498  24.4751997  48.1670150
  94.8240855  24.9039265  47.5287634  94.8447610  24.1934581  48.8654335
  96.2984303  21.0503667  42.0379952  97.0008346  21.5024711  42.5053878
  95.9664931  20.4087486  42.6659845  94.7464664  19.6415424  56.4131161
  94.1163325  20.3231705  56.6466558  94.6400752  19.5298506  55.4684299
  90.0409637  19.3087220  47.3397085  89.2508691  19.5644749  46.8637196
  90.5320884  20.1235558  47.4449126 104.0573446  26.6492459  50.0902366
 104.8790890  26.2472646  49.8085048 104.0535849  26.5460693  51.0418482
  91.9924382  19.6731799  44.2980562  91.1955545  19.7850493  44.8164058
  91.7649974  20.0118451  43.4321452  97.8230050  26.1976502  52.2463077
  97.8874482  26.6596910  53.0821248  97.1140974  25.5673867  52.3745386
  88.3247340  19.5617710  49.7712076  88.5755378  20.4464720  50.0369652
  88.8606888  19.3822312  48.9987168 112.1479439  22.9931208  46.4387338
 111.3943148  22.4238606  46.2831342 112.2826981  22.9593872  47.3857972
  97.5378067  27.8644610  42.1142057  97.4023742  28.7096146  42.5426905
  98.0787880  28.0663888  41.3507991  94.0245407  13.9436190  58.7756412
  93.6312353  13.3902388  59.4504056  94.8411547  14.2546768  59.1662930
  90.9907465  25.3820048  42.6869982  91.5031985  26.1763298  42.8375547
  91.6430178  24.6846338  42.6203583  92.8002349  28.4985804  44.7692735
  92.9768978  29.4203769  44.5813719  93.5959183  28.1844223  45.1987115
  96.9413368  15.3594069  56.3676669  97.6823081  15.9601222  56.2881131
  97.1731291  14.6171707  55.8094711  92.0854706  20.5450436  54.6454898
  91.9708221  19.6435693  54.9461997  91.2299224  20.7914133  54.2939715
  99.1646544  28.4868176  56.2442399  98.7210398  27.7004555  55.9263303
  99.8263757  28.6747327  55.5786290  93.9233665  30.0163978  50.7703078
  94.4741090  29.8881041  49.9980071  93.0845141  30.3158867  50.4197970
 101.2627782  28.7670976  54.2723800 101.2446257  29.5879857  53.7804069
 102.1847702  28.6425052  54.4973941  97.7200836  26.2815106  55.1147309
  98.2529173  25.5203394  54.8846617  97.1914917  25.9888758  55.8571463
  88.9556382  23.7108702  43.4629553  89.7931604  24.1205711  43.2463260
  89.1334649  22.7708144  43.4329746 100.8520814  21.3783783  39.1513385
 100.3367437  22.1488388  39.3901773 100.5798122  20.7048919  39.7746447
  98.4367925  16.2233484  44.2098624  97.5809521  15.8340334  44.0304263
  98.8494876  16.3025445  43.3498409  99.9667071  13.7579827  48.6090184
  99.4631867  13.7209962  47.7957989 100.2597678  14.6672570  48.6686840
  96.2109957  13.8418557  47.6156365  97.0762954  13.6461365  47.2562255
  96.2787466  13.6128908  48.5425722 105.8255088  24.1316138  41.0866559
 105.0484531  23.7927297  40.6421721 106.5046569  24.1368761  40.4121524
 100.6407117  19.2510875  40.9773167 100.3357252  19.5657024  41.8283310
 101.5937559  19.3292295  41.0200500  99.0853549  25.4101098  42.6266121
  98.5574910  24.6753858  42.3139358  98.5841051  26.1875775  42.3806089
 104.0646395  23.6050119  47.7433167 103.4070069  24.2949380  47.8313296
 104.8686794  23.9946551  48.0867153  93.8172276  16.0720765  44.9872732
  94.3916028  15.8495946  44.2545925  94.4043259  16.1409459  45.7401333
 102.8751853  21.9594492  45.7937109 103.3883735  22.5924483  46.2958818
 103.5253077  21.3595687  45.4280469  94.1441863  18.1025226  39.0068617
  93.3079176  18.4399912  39.3277892  94.0046633  17.9674205  38.0695754
  96.1194944  12.9462014  43.7147802  95.4659356  12.6311031  43.0904416
  96.0775418  12.3237754  44.4407625  97.2306149  23.2281309  35.6301094
  96.3233211  22.9970562  35.8292243  97.7277181  22.4318928  35.8175075
 100.1374228  31.9378816  38.5497780  99.4635926  32.2410513  39.1582738
 100.5240050  32.7407896  38.2003237  99.3532684  19.4343947  48.0395449
  98.4355246  19.6558894  47.8817137  99.7692828  19.5090258  47.1807157
 100.1367732  20.8335363  43.1698129 100.8839551  21.3456760  42.8605252
 100.4059322  20.5119415  44.0302523  98.4094382  23.3293903  40.1525084
  97.5005602  23.0452936  40.2497554  98.4389466  23.7492982  39.2928391
 103.6413650  26.9400493  43.9216251 103.1875977  26.0991403  43.9781442
 103.0107616  27.5761891  44.2591031 102.5846569  17.8692479  45.1516919
 101.8469326  17.3569865  45.4827161 102.8373343  17.4292861  44.3400196
 102.0846589  28.7776990  44.8566069 102.3769563  29.3382047  44.1378435
 102.5945210  29.0705551  45.6119229  88.9782553  21.0499418  44.1340286
  88.7806952  20.4568778  43.4091353  88.4229217  20.7451628  44.8516225
  96.9579276  20.9422524  46.2534879  97.0127886  19.9896360  46.1777356
  96.1470478  21.0981963  46.7376178  98.1070470  24.8702647  37.4913162
  97.6689900  24.1538506  37.0318800  98.8480911  25.0978762  36.9298254
  94.8971636  19.5599584  44.0125258  94.0839502  19.8593754  44.4190450
  95.3930630  19.1655273  44.7299740  97.0480214  29.5557341  45.9459523
  97.0056393  29.7818187  45.0168055  97.9642913  29.3220715  46.0945324
 100.4945848  20.0241408  52.8440152 100.8495236  20.2512881  53.7034618
 101.1417979  20.3559785  52.2217407 106.2243585  23.1459844  43.5489481
 106.0861483  23.3361440  42.6210670 105.8679804  23.9079227  44.0057532
  94.3885711  17.1317939  49.6286493  95.0285090  16.9906698  48.9309456
  93.5563242  16.8452453  49.2525095 106.2512964  25.2136371  48.5600752
 106.6849471  25.1211660  49.4083806 106.9644545  25.1893872  47.9220768
  95.1646015  26.4320370  45.7421485  95.9586613  25.9370690  45.5404060
  94.4537707  25.9038233  45.3789191  99.9840859  28.8138465  50.0933853
 100.0377882  29.3829402  50.8611569  99.1155641  28.9840350  49.7287890
  91.4728778  20.5763452  41.8181238  90.5426366  20.5147907  42.0351200
  91.5686250  20.0539404  41.0217879  91.3914327  17.1018264  44.4059480
  91.6521145  18.0163598  44.2968640  92.2131500  16.6342707  44.5556093
  92.8639253  18.5156022  51.5758304  93.5362306  18.3073384  50.9270953
  92.0369039  18.3178108  51.1363537 107.1128514  25.2560072  51.0933638
 107.3064404  26.1605882  51.3392913 107.0129132  24.7967491  51.9272223
  98.7664825  15.1417962  53.5923965  98.1192740  15.8407912  53.4988442
  99.5365840  15.5754106  53.9600213 102.1743623  25.4066815  56.6674518
 102.0229129  25.1777366  55.7504602 102.1648302  26.3637416  56.6805863
  98.9428959  22.9798727  51.6520785  99.8721019  23.1309887  51.4789752
  98.5219989  23.0682748  50.7969431  97.7417291  27.0049392  49.4219323
  97.6028377  26.6368176  50.2945261  96.9531887  27.5197031  49.2503280
  98.3365443  32.1058488  40.7644859  98.5117199  31.6346531  41.5790482
  97.6498231  32.7324254  40.9926120  99.2922506  26.3830994  46.8108160
  98.9572339  26.3431764  47.7065810  98.7926452  25.7175710  46.3378571
  93.2666750  21.7898624  52.3360741  93.1286548  21.0578863  52.9372280
  94.1771673  21.7007525  52.0544929 102.2281698  23.7287029  37.0845220
 101.6110868  23.0033857  36.9878273 101.7598186  24.4896389  36.7412294
  95.8949051  21.5018584  51.8244421  96.6048669  20.8611776  51.7831040
  95.8518359  21.7531479  52.7470602 103.8835829  28.4385937  54.7451000
 103.8248376  27.7545157  54.0781583 104.2855348  29.1804927  54.2931626
  94.6077985  18.4883802  53.6440061  94.0715342  18.0374540  54.2961657
  94.0194693  18.6229711  52.9010525  92.9026528  35.2547851  47.5384719
  93.1423126  35.8866375  48.2163738  92.0595725  34.9035891  47.8250078
  94.0180244  17.9472453  36.2066524  93.1409710  17.8261254  35.8428771
  94.4937997  17.1558531  35.9545413 103.8853237  26.4025521  52.9764980
 102.9980015  26.0651443  53.0991379 104.4551788  25.6708552  53.2133745
  85.5382384  22.7349613  46.3008031  86.2253424  22.4211343  45.7129047
  85.3830512  23.6390977  46.0275283  90.3417106  17.6239809  50.7293055
  90.2575295  17.0165479  49.9943465  89.5199812  18.1148828  50.7302551
  97.4154390  31.0626973  49.9426223  97.3424562  31.8681945  50.4545528
  96.9731783  31.2618939  49.1174245  97.2044170  30.2998743  43.4529045
  96.4211692  30.8420424  43.5467269  97.9036915  30.8172723  43.8523286
 100.5140820  16.1093373  46.0963250 101.0109519  15.3563335  45.7764320
  99.7427801  16.1457690  45.5306459 108.3670577  21.8133738  47.7381542
 108.3560453  22.6958454  47.3675475 107.4987957  21.4605289  47.5436079
  99.8753074  30.9613807  52.0984382 100.5881046  31.5961272  52.0260283
  99.3843102  31.0577673  51.2824384 101.5970600  24.8665060  43.6701674
 100.6626879  24.9866523  43.5006378 101.7747269  23.9637527  43.4061683
  97.0975789  18.2510756  45.8234935  96.7273576  17.6981796  46.5115840
  97.5934881  17.6468889  45.2709935 104.9843152  20.7082379  44.2051708
 105.4503604  21.5410371  44.1312010 105.4350652  20.2427361  44.9096966
  94.9264987  28.7108251  52.9189953  95.6274447  29.3444734  53.0719347
  94.4560102  29.0522982  52.1585592 103.0519383  27.0526201  41.2037860
 103.3279227  26.9382795  42.1131734 102.1823882  26.6543686  41.1650033
 102.9559815  13.0762966  48.2442609 102.0422894  13.3067193  48.4124816
 103.3852916  13.1601410  49.0956641 102.7266273  21.2652858  50.7442503
 102.0737723  21.5128766  50.0894956 103.1046653  20.4516997  50.4104980
  99.6873447  31.3012552  44.8470673  99.8695841  30.4834207  45.3098426
 100.5106433  31.5180244  44.4095563 100.0215612  30.2280737  42.1085722
 100.5503379  29.7173191  41.4955884 100.2843832  29.9123267  42.9731255
  98.7753846  22.0072669  57.2308540  98.0994483  21.9066799  57.9010915
  99.5981480  21.8511883  57.6944537  90.5232705  28.2444606  49.8521055
  91.1086142  27.4988294  49.9848960  90.3257544  28.5548563  50.7357719
  93.3771360  31.2795853  44.8683498  92.7081736  31.7641981  44.3847538
  93.2384230  31.5265074  45.7826876  85.1150360  20.8150206  48.5725498
  85.1534459  20.2813797  49.3662617  84.6090653  20.2885412  47.9536476
  97.5176629  33.3139597  51.4666156  98.0694937  33.4771218  52.2315241
  97.8582822  33.9044035  50.7946181  92.4941122  15.6614747  52.0688041
  92.5582449  16.5229578  51.6565438  92.4308242  15.0488748  51.3360399
  91.9693395  17.7337879  55.7161075  92.5965434  17.3514957  56.3298599
  91.1121314  17.5152081  56.0816768 102.3687503  28.1400854  57.3214811
 102.9127407  28.7530813  56.8269765 101.7874348  28.6980433  57.8381824
  88.7458937  19.5414308  41.6479430  89.0412379  18.6324987  41.5946484
  87.8446973  19.5202048  41.3260432 100.6545016  31.2621572  48.4529838
 100.5296156  30.4611312  47.9440784 101.3124107  31.7567766  47.9643808
  92.2753184  17.6170305  47.6306978  91.5539770  18.2306273  47.4914452
  93.0646440  18.1528070  47.5523624 102.7179925  29.0630593  50.0809388
 101.7710260  28.9435944  50.0087715 103.0662698  28.1753091  50.1635650
  95.0779498  14.9524731  53.9047630  95.6013900  15.1987028  54.6673940
  94.8591831  15.7844766  53.4850768  90.4746779  17.2228406  41.7718755
  90.1459485  16.3425785  41.5893861  90.8286150  17.1676075  42.6595144
  99.7226358  28.8583309  46.2813741  99.5751320  27.9300016  46.4621311
 100.5479851  28.8803399  45.7970816  93.5888602  17.5101376  42.1394233
  93.9284675  18.0387297  41.4172841  94.0360723  17.8481782  42.9152799
 103.3260480  29.6811867  47.3678613 104.2507027  29.4754729  47.2303064
 103.1575783  29.4328269  48.2767955  96.2832043  15.8938427  51.5897301
  95.9428863  15.0946240  51.9917981  95.5771049  16.1940137  51.0174134
  96.9348515  12.9787739  50.0424624  97.7574584  12.5048217  49.9203514
  97.1786578  13.7578223  50.5423310  95.5756749  16.0075997  40.3387525
  96.2965112  16.3857250  39.8351242  94.9522053  16.7264874  40.4422503
  99.7187872  16.7121146  41.2745858  99.9351487  17.5945784  40.9734686
  99.2381939  16.3207360  40.5451500  94.4587094  19.6706860  47.8516602
  94.3131674  19.9847163  48.7440884  93.9812297  20.2891760  47.2987501
  96.3183476  16.6609408  47.8997492  96.3045045  15.7650501  47.5629790
  97.0355905  16.6680071  48.5335778  98.1709607  17.0946748  49.9450619
  97.9127385  18.0163818  49.9434950  97.6394648  16.6977182  50.6351084
 103.1155796  30.1997535  42.7240705 103.2892673  29.6343957  41.9714557
 103.6084687  30.9998430  42.5420195  88.9332756  22.2112204  50.7904264
  88.3886224  22.9872012  50.9224538  89.8112106  22.5583008  50.6323385
  95.7220372  15.5423788  43.1685062  95.8436284  14.6140434  43.3675950
  95.4322415  15.5562474  42.2563378  98.5911563  13.2278698  46.3051782
  98.6133260  13.2918031  45.3503761  99.0079622  12.3883207  46.4992288
 108.9695187  22.9633958  44.3431005 109.4126333  22.2141283  43.9450128
 108.0921697  22.9544094  43.9604736 104.1030968  29.5164299  39.8237603
 104.7981873  30.1370992  40.0424918 104.4454119  28.6659651  40.0989981
  89.7198778  21.3382100  53.6834420  88.9780514  21.4864736  54.2699051
  89.3991522  21.5990366  52.8201170 106.0022392  26.9664005  41.3524934
 106.5273716  27.3051278  40.6274254 105.9144744  26.0311020  41.1688068
  97.6642440  30.8798078  53.4814810  97.9729567  30.6347225  54.3537510
  98.4617922  31.0844717  52.9933681  97.6863052  33.0335988  45.7120187
  97.2468043  32.5412367  46.4053044  98.4371169  32.4908956  45.4712262
  90.1655391  29.2247529  45.7144815  90.9913411  28.9251301  45.3343459
  89.8149443  28.4555151  46.1634604  95.1336924  28.5773997  47.7842489
  94.5116934  27.9144702  47.4844717  95.8041791  28.6035129  47.1016136
  88.3663996  27.1433855  46.6733749  87.5295905  26.7156030  46.4917750
  88.3387642  27.3366299  47.6104540  95.2061452  17.0555785  57.3774995
  95.2549607  17.9317908  56.9952764  95.7483966  16.5133178  56.8046638
 105.6916298  27.5996908  56.6576132 104.9011841  27.5821047  56.1180631
 105.4549652  28.1385202  57.4125168 105.8114173  24.4489375  53.9708860
 105.8612178  24.2839382  54.9124383 105.7028096  23.5816634  53.5806741
  94.6950431  27.1277921  41.2600949  94.8438552  27.8113385  40.6067622
  95.5016875  27.1083011  41.7750405 103.1017935  20.4320303  55.2868167
 104.0027798  20.2926768  54.9952165 103.1765910  20.5974758  56.2266344
  97.4360740  17.8087158  54.1321353  96.5664050  18.1020724  53.8603942
  97.6720221  18.3927603  54.8528617 107.3132370  26.8686316  54.2150882
 107.0217178  27.2316297  55.0514343 106.7004501  26.1553325  54.0364214
 108.5128052  24.4339196  46.7353452 109.3474943  24.8729000  46.8991012
 108.6487181  23.9577849  45.9161698 105.5619558  21.9918931  52.6830940
 106.0373679  22.1846577  51.8749791 104.6385123  22.0478117  52.4374324
  92.4503064  23.1543098  42.2662018  92.2049106  22.2505428  42.4642228
  92.6198979  23.1560249  41.3241496 100.1399774  14.0266775  51.6486774
 100.6581718  14.7627801  51.3233262  99.7854907  14.3330768  52.4833533
  91.7198712  18.8871456  39.7648180  91.0267957  18.9615811  39.1088216
  91.4750464  18.1231799  40.2869697  98.1945837  29.6226051  38.7312697
  97.6219804  30.2416238  38.2783169  98.7678631  30.1725413  39.2652619
 104.2621227  18.8684691  50.9159245 105.2138650  18.9682789  50.9371469
 104.0924677  18.0762960  51.4257330 102.2835606  15.9540274  51.1018646
 101.6885538  16.2345287  50.4065135 101.9985303  16.4434175  51.8735387
 101.4143097  29.9063201  39.8621279 102.3473770  29.8408763  40.0654154
 101.3266310  30.7419468  39.4035812 104.0431113  29.2229071  36.8225226
 103.9644745  28.8888935  37.7160984 104.8640780  29.7150839  36.8216699
 106.7409305  22.0890811  50.0301545 106.7085625  21.1506812  50.2161229
 107.3509928  22.1674847  49.2967370  98.5792635  20.9586864  36.0728749
  99.5251740  20.8293072  36.1417167  98.2006880  20.2201526  36.5498177
 106.8903793  18.8801854  50.0759828 106.3742842  18.0960311  49.8889757
 107.7743742  18.5520571  50.2406348 112.5585854  23.1506818  49.1707582
 113.2889243  22.8892106  49.7315285 111.9492800  22.4135540  49.2109650
 110.6401152  21.2914680  49.7682033 109.9134315  21.1570645  49.1598525
 110.2248438  21.5991509  50.5738751  98.4631328  25.0104610  57.5329406
  99.3834337  25.1883209  57.7269453  98.4280911  24.0660655  57.3809105
  96.7635553  18.8836840  36.0083634  95.8567008  18.5869953  36.0846348
  97.0411534  18.5866658  35.1417921  87.6813493  20.2043204  46.4582681
  87.3616277  19.3508512  46.1657055  87.1346921  20.4191782  47.2140648
  91.4593400  22.9205645  50.1752187  91.6779410  23.8522752  50.1940221
  91.8719174  22.5613619  50.9606991  98.3797618  13.4273730  42.1627876
  97.5698347  13.0820815  42.5383122  99.0682035  13.1181274  42.7515487
 100.3088167  12.5051777  43.7852172 100.8619205  12.9247230  44.4442195
 100.5458253  11.5787525  43.8275128  96.3321266  18.4938850  59.5654936
  96.2317993  19.4433207  59.4967027  96.1142808  18.1657089  58.6931006
  95.5334337  15.7423775  36.1495614  96.3953501  16.0678674  36.4091431
  95.7184681  14.9555271  35.6368679  87.5501753  23.8246115  48.4275802
  86.8565224  23.4100068  47.9145757  88.2974744  23.8666652  47.8309221
 103.6866974  14.6152302  43.2930837 103.1065643  15.2737106  42.9108889
 103.4202906  13.7929646  42.8818254 102.1370540  14.0157360  45.4952157
 102.6370318  14.1273894  44.6866476 102.7806148  13.7118412  46.1352965
  96.1952536  21.9235989  58.3819998  95.7119618  22.7236349  58.5883887
  96.2813475  21.9343934  57.4287442  89.4638495  23.7564369  46.3041817
  89.4409184  23.8552056  45.3523700  89.7739132  24.6029520  46.6258983
  92.1225873  25.8140524  50.4188432  93.0769127  25.7824466  50.3518363
  91.9238397  25.3531148  51.2338658  92.7125255  24.3841640  52.9859229
  93.5318144  24.8785719  53.0094067  92.9862063  23.4673608  52.9576797
 102.4691852  16.7752392  42.3487185 101.5817707  17.0602043  42.1307380
 102.8845841  16.6146156  41.5014462 105.8206388  16.7998913  46.0641524
 106.5966778  17.2895366  46.3366141 105.0954522  17.2256967  46.5213394
 108.2578946  17.5126532  47.1215465 108.8523437  17.2722268  46.4108773
 108.3305530  16.7933663  47.7489001  90.4776102  31.3560143  47.4358630
  90.3430570  30.5960544  46.8696628  90.0608164  32.0801043  46.9687418
 101.6135065  26.5397067  36.4435205 102.3170915  26.7447069  37.0592860
 100.8897714  27.1073829  36.7084288 102.4432875  22.2906928  42.5637475
 102.3868077  22.7475480  41.7245107 102.9961218  21.5297613  42.3860318
 106.2537681  18.0796660  43.3887594 105.9974616  17.6793296  44.2195802
 105.6290549  18.7940454  43.2637734 110.5650019  20.8192733  45.8958886
 110.0049577  20.8885923  46.6690448 109.9593523  20.6433718  45.1758382
  93.6345228  32.2529460  47.6477072  93.5177612  33.1974893  47.5455762
  92.8137674  31.9503022  48.0362871 103.5221763  26.9779596  38.4933665
 104.3567366  26.5460795  38.3111140 103.3606105  26.8061610  39.4210559
 103.1767655  23.4811709  39.8590004 103.1216459  23.3155981  38.9178448
 102.5513710  24.1887742  40.0152194  87.9660170  18.7179774  53.6851426
  88.6119033  18.2078728  54.1738652  87.7577321  19.4548455  54.2594852
 100.4913562  25.7860621  59.1843567 101.3604722  25.9601274  58.8230202
 100.0120313  26.6055038  59.0619296  96.4863780  12.9819818  39.4375323
  96.4742450  13.9261658  39.5943593  97.3787202  12.7989964  39.1434784
  94.6599742  32.9057722  50.8633001  95.5626989  32.9381333  51.1799496
  94.4337112  31.9758173  50.8779336  96.4153344  31.6588709  47.5243079
  95.4648975  31.6590570  47.4107451  96.7185830  30.9121443  47.0079114
  92.3057661  15.8647391  57.7826441  93.1689122  15.5084196  57.9929765
  91.7323071  15.5261286  58.4701845 112.1506038  37.4949247  48.5888842
 112.7884448  37.3755995  47.8852182 112.0326881  38.4430091  48.6476794
 108.9595744  37.4476675  48.5250366 108.6214255  37.3317740  47.6370901
 109.8285512  37.0467840  48.5051372 104.8182560  39.3012152  44.5147257
 104.2547425  39.2102089  43.7463545 104.7034955  38.4812056  44.9949750
 109.4415527  38.6011527  54.4836572 109.4304168  38.2064325  53.6117075
 109.6036166  37.8677600  55.0770343 102.3646992  40.7963343  47.3531478
 103.1568283  40.4554168  46.9377777 102.6043642  40.9058318  48.2733631
 110.3982118  42.9683119  39.8261722 109.7470098  43.5537200  39.4395736
 111.1926481  43.4989314  39.8856760 104.3237745  40.0572257  40.2248857
 105.0968621  39.5101244  40.0861732 104.6763144  40.9216506  40.4363318
 106.1622788  41.3848639  53.4315756 105.8712654  42.2894270  53.3162422
 106.7979772  41.4265166  54.1459825 107.0878995  38.7625487  50.0217115
 107.6842567  38.5381510  49.3074078 107.1453966  38.0210233  50.6242563
 106.6604023  36.2164923  37.8567306 106.9129544  35.6946444  37.0950769
 105.7228582  36.0531068  37.9593990 111.7047306  35.2200701  45.6642050
 112.4910395  34.8020124  45.3132467 111.9686010  36.1246793  45.8323698
 111.8757383  40.6573551  40.3630706 111.2403216  40.7308178  41.0751611
 111.5454790  41.2467150  39.6849786 117.1055733  35.1575934  46.5675028
 117.8380905  34.5875151  46.8012858 116.3495089  34.7697535  47.0081534
 106.3800312  38.1193029  40.0591681 106.2636570  37.4437932  40.7272766
 106.4902572  37.6325403  39.2423834 108.7231853  37.5803176  43.7638371
 108.3590060  37.0533797  44.4751292 109.5798969  37.1901645  43.5904856
 114.6281154  28.8697508  51.0269637 114.2964478  29.7392919  50.8030852
 114.0326767  28.5533792  51.7063667 108.3637340  32.6093075  38.7599719
 108.5311742  33.4773312  39.1270190 108.1734509  32.7720357  37.8361008
 111.1212673  41.0710054  50.4265549 110.8213396  41.9735093  50.3181357
 110.7763733  40.8042238  51.2786702 104.5725155  37.5223851  46.4602254
 103.6475651  37.3900065  46.6679946 104.8209568  38.3018070  46.9572196
 114.5209817  33.5892595  48.1062987 113.6126694  33.5208003  47.8121748
 114.4697413  34.0664539  48.9344812 108.3426561  35.0650733  39.7446386
 108.2226186  35.5107784  40.5831866 107.6479149  35.4136051  39.1859924
 101.9333966  37.1657125  47.2946043 102.0626347  37.4191604  48.2085455
 101.2531417  37.7584833  46.9750698 106.1033453  47.8354375  43.3936517
 106.0257483  48.7862200  43.4724998 105.4995097  47.4900247  44.0511443
 108.5950683  35.0082240  56.0497884 107.8184017  35.5676160  56.0400749
 109.2341246  35.4939023  56.5712754 116.3871463  31.7909033  49.8840861
 115.7445844  32.0841566  49.2380655 115.8826392  31.6761953  50.6894057
 114.0411627  35.5372206  40.5726720 114.9529483  35.7699593  40.3974418
 113.5321274  36.1209250  40.0101799 106.8497055  37.8167693  55.6115851
 107.5911739  38.3552737  55.3350675 106.1434040  38.4433982  55.7687403
 112.3252395  39.9596834  54.2088013 112.7335751  39.5179244  53.4642645
 111.6029656  39.3849461  54.4622205 108.6783465  34.8969441  51.5821570
 109.5244660  35.3208854  51.7256219 108.6182102  34.2403065  52.2760133
 112.6481209  40.5198025  47.9640301 112.0190072  40.6843739  47.2616369
 112.2606871  40.9339634  48.7351265 116.5270441  41.4552462  45.3184665
 115.8421479  41.8351364  44.7681699 116.6114291  42.0647789  46.0516613
 111.8282910  32.5573809  53.2402743 111.5843842  33.3115870  52.7037019
 112.1042841  32.9359157  54.0749990 113.7821373  39.1012421  51.9180009
 113.9938268  39.7444181  51.2414390 113.7351121  38.2674738  51.4501939
 111.3847602  31.7130242  48.8216581 110.5232081  32.0111496  49.1133318
 111.4110036  31.9300641  47.8897614 108.2009171  40.2572433  45.2290387
 108.6647517  40.5360136  44.4395009 107.9365969  39.3555877  45.0463477
 105.0933252  39.8043914  48.1670150 105.6634609  40.2331183  47.5287634
 105.6841364  39.5226499  48.8654335 107.1378057  36.3795585  42.0379952
 107.8402101  36.8316629  42.5053878 106.8058686  35.7379404  42.6659845
 105.5858419  34.9707342  56.4131161 104.9557079  35.6523622  56.6466558
 105.4794507  34.8590423  55.4684299 100.8803391  34.6379138  47.3397085
 100.0902445  34.8936666  46.8637196 101.3714639  35.4527476  47.4449126
 114.8967201  41.9784377  50.0902366 115.7184644  41.5764564  49.8085048
 114.8929604  41.8752611  51.0418482 102.8318137  35.0023717  44.2980562
 102.0349300  35.1142411  44.8164058 102.6043729  35.3410369  43.4321452
 108.6623804  41.5268420  52.2463077 108.7268237  41.9888827  53.0821248
 107.9534728  40.8965785  52.3745386  99.1641094  34.8909628  49.7712076
  99.4149133  35.7756638  50.0369652  99.7000643  34.7114230  48.9987168
 108.3771822  43.1936528  42.1142057 108.2417497  44.0388063  42.5426905
 108.9181634  43.3955805  41.3507991 104.8639161  29.2728107  58.7756412
 104.4706107  28.7194306  59.4504056 105.6805302  29.5838686  59.1662930
 101.8301219  40.7111966  42.6869982 102.3425740  41.5055216  42.8375547
 102.4823932  40.0138256  42.6203583 103.6396104  43.8277722  44.7692735
 103.8162732  44.7495687  44.5813719 104.4352937  43.5136141  45.1987115
 107.7807122  30.6885987  56.3676669 108.5216836  31.2893140  56.2881131
 108.0125045  29.9463624  55.8094711 102.9248460  35.8742354  54.6454898
 102.8101976  34.9727611  54.9461997 102.0692978  36.1206051  54.2939715
 110.0040298  43.8160094  56.2442399 109.5604152  43.0296473  55.9263303
 110.6657512  44.0039245  55.5786290 104.7627419  45.3455896  50.7703078
 105.3134845  45.2172959  49.9980071 103.9238895  45.6450785  50.4197970
 112.1021536  44.0962894  54.2723800 112.0840012  44.9171775  53.7804069
 113.0241456  43.9716969  54.4973941 108.5594590  41.6107024  55.1147309
 109.0922927  40.8495312  54.8846617 108.0308672  41.3180675  55.8571463
 111.7264285  26.7167090  50.6440950 111.3828555  27.6068731  50.5680061
 112.0943248  26.5268747  49.7810535  99.7950136  39.0400620  43.4629553
 100.6325358  39.4497628  43.2463260  99.9728404  38.1000062  43.4329746
 111.6914568  36.7075701  39.1513385 111.1761192  37.4780305  39.3901773
 111.4191877  36.0340837  39.7746447 109.2761679  31.5525401  44.2098624
 108.4203276  31.1632252  44.0304263 109.6888631  31.6317362  43.3498409
 110.8060826  29.0871745  48.6090184 110.3025621  29.0501880  47.7957989
 111.0991433  29.9964487  48.6686840 107.0503712  29.1710474  47.6156365
 107.9156708  28.9753283  47.2562255 107.1181221  28.9420826  48.5425722
 116.6648842  39.4608055  41.0866559 115.8878285  39.1219215  40.6421721
 117.3440323  39.4660678  40.4121524 111.4800871  34.5802793  40.9773167
 111.1751007  34.8948942  41.8283310 112.4331313  34.6584213  41.0200500
 109.9247303  40.7393016  42.6266121 109.3968665  40.0045776  42.3139358
 109.4234806  41.5167692  42.3806089 114.9040149  38.9342037  47.7433167
 114.2463824  39.6241298  47.8313296 115.7080548  39.3238468  48.0867153
 104.6566031  31.4012682  44.9872732 105.2309783  31.1787864  44.2545925
 105.2437013  31.4701377  45.7401333 113.7145608  37.2886409  45.7937109
 114.2277490  37.9216401  46.2958818 114.3646832  36.6887605  45.4280469
 104.9835618  33.4317143  39.0068617 104.1472930  33.7691830  39.3277892
 104.8440388  33.2966123  38.0695754 106.9588698  28.2753931  43.7147802
 106.3053111  27.9602948  43.0904416 106.9169173  27.6529672  44.4407625
 108.0699903  38.5573226  35.6301094 107.1626965  38.3262480  35.8292243
 108.5670935  37.7610846  35.8175075 110.9767982  47.2670733  38.5497780
 110.3029681  47.5702430  39.1582738 111.3633804  48.0699814  38.2003237
 110.1926439  34.7635865  48.0395449 109.2749000  34.9850812  47.8817137
 110.6086582  34.8382175  47.1807157 110.9761487  36.1627280  43.1698129
 111.7233306  36.6748678  42.8605252 111.2453076  35.8411333  44.0302523
 109.2488137  38.6585821  40.1525084 108.3399356  38.3744854  40.2497554
 109.2783221  39.0784900  39.2928391 114.4807404  42.2692411  43.9216251
 114.0269731  41.4283321  43.9781442 113.8501371  42.9053809  44.2591031
 113.4240324  33.1984397  45.1516919 112.6863081  32.6861783  45.4827161
 113.6767097  32.7584778  44.3400196 112.9240343  44.1068907  44.8566069
 113.2163318  44.6673964  44.1378435 113.4338964  44.3997468  45.6119229
 113.5251951  25.9760649  45.7458688 113.8310828  25.1158012  45.4584603
 114.2504556  26.5678269  45.5457682  99.8176307  36.3791335  44.1340286
  99.6200707  35.7860696  43.4091353  99.2622971  36.0743545  44.8516225
 107.7973031  36.2714442  46.2534879 107.8521641  35.3188278  46.1777356
 106.9864233  36.4273881  46.7376178 108.9464225  40.1994565  37.4913162
 108.5083655  39.4830424  37.0318800 109.6874665  40.4270680  36.9298254
 105.7365391  34.8891502  44.0125258 104.9233256  35.1885672  44.4190450
 106.2324385  34.4947190  44.7299740 107.8873969  44.8849258  45.9459523
 107.8450147  45.1110105  45.0168055 108.8036667  44.6512633  46.0945324
 111.3339602  35.3533326  52.8440152 111.6888990  35.5804799  53.7034618
 111.9811734  35.6851703  52.2217407 117.0637339  38.4751762  43.5489481
 116.9255238  38.6653358  42.6210670 116.7073558  39.2371145  44.0057532
 105.2279465  32.4609857  49.6286493 105.8678845  32.3198616  48.9309456
 104.3956996  32.1744370  49.2525095 117.0906719  40.5428289  48.5600752
 117.5243226  40.4503578  49.4083806 117.8038300  40.5185789  47.9220768
 106.0039769  41.7612287  45.7421485 106.7980368  41.2662608  45.5404060
 105.2931462  41.2330151  45.3789191 110.8234614  44.1430383  50.0933853
 110.8771636  44.7121319  50.8611569 109.9549395  44.3132268  49.7287890
 102.3122533  35.9055369  41.8181238 101.3820121  35.8439825  42.0351200
 102.4080005  35.3831322  41.0217879 102.2308082  32.4310182  44.4059480
 102.4914899  33.3455515  44.2968640 103.0525254  31.9634625  44.5556093
 103.7033007  33.8447939  51.5758304 104.3756061  33.6365301  50.9270953
 102.8762794  33.6470025  51.1363537 117.9522269  40.5851990  51.0933638
 118.1458159  41.4897800  51.3392913 117.8522887  40.1259409  51.9272223
 109.6058579  30.4709880  53.5923965 108.9586494  31.1699830  53.4988442
 110.3759595  30.9046024  53.9600213 113.0137377  40.7358732  56.6674518
 112.8622884  40.5069284  55.7504602 113.0042057  41.6929334  56.6805863
 109.7822714  38.3090645  51.6520785 110.7114774  38.4601805  51.4789752
 109.3613744  38.3974666  50.7969431 108.5811045  42.3341309  49.4219323
 108.4422131  41.9660094  50.2945261 107.7925642  42.8488949  49.2503280
 109.1759197  47.4350406  40.7644859 109.3510953  46.9638449  41.5790482
 108.4891985  48.0616172  40.9926120 110.1316261  41.7122912  46.8108160
 109.7966093  41.6723682  47.7065810 109.6320206  41.0467628  46.3378571
 104.1060505  37.1190542  52.3360741 103.9680302  36.3870781  52.9372280
 105.0165428  37.0299442  52.0544929 113.0675452  39.0578946  37.0845220
 112.4504623  38.3325775  36.9878273 112.5991941  39.8188307  36.7412294
 106.7342805  36.8310501  51.8244421 107.4442424  36.1903694  51.7831040
 106.6912113  37.0823396  52.7470602 114.7229584  43.7677855  54.7451000
 114.6642130  43.0837075  54.0781583 115.1249102  44.5096845  54.2931626
 105.4471739  33.8175719  53.6440061 104.9109096  33.3666458  54.2961657
 104.8588448  33.9521628  52.9010525 103.7420283  50.5839769  47.5384719
 103.9816881  51.2158293  48.2163738 102.8989479  50.2327809  47.8250078
 104.8573998  33.2764371  36.2066524 103.9803464  33.1553172  35.8428771
 105.3331751  32.4850449  35.9545413 114.7246991  41.7317439  52.9764980
 113.8373770  41.3943361  53.0991379 115.2945542  41.0000470  53.2133745
  96.3776138  38.0641531  46.3008031  97.0647178  37.7503261  45.7129047
  96.2224267  38.9682895  46.0275283 101.1810860  32.9531727  50.7293055
 101.0969049  32.3457397  49.9943465 100.3593567  33.4440745  50.7302551
 108.2548145  46.3918891  49.9426223 108.1818316  47.1973863  50.4545528
 107.8125538  46.5910857  49.1174245 108.0437924  45.6290661  43.4529045
 107.2605446  46.1712341  43.5467269 108.7430669  46.1464641  43.8523286
 111.3534574  31.4385291  46.0963250 111.8503274  30.6855253  45.7764320
 110.5821556  31.4749607  45.5306459 119.2064332  37.1425656  47.7381542
 119.1954208  38.0250372  47.3675475 118.3381711  36.7897207  47.5436079
 110.7146828  46.2905725  52.0984382 111.4274800  46.9253190  52.0260283
 110.2236857  46.3869591  51.2824384 112.4364355  40.1956978  43.6701674
 111.5020634  40.3158440  43.5006378 112.6141023  39.2929445  43.4061683
 107.9369543  33.5802674  45.8234935 107.5667331  33.0273714  46.5115840
 108.4328635  32.9760807  45.2709935 115.8236906  36.0374297  44.2051708
 116.2897358  36.8702289  44.1312010 116.2744407  35.5719279  44.9096966
 105.7658742  44.0400169  52.9189953 106.4668201  44.6736652  53.0719347
 105.2953857  44.3814900  52.1585592 113.8913137  42.3818118  41.2037860
 114.1672981  42.2674713  42.1131734 113.0217636  41.9835603  41.1650033
 113.7953569  28.4054884  48.2442609 112.8816649  28.6359111  48.4124816
 114.2246671  28.4893328  49.0956641 113.5660028  36.5944776  50.7442503
 112.9131478  36.8420684  50.0894956 113.9440407  35.7808914  50.4104980
 110.5267201  46.6304469  44.8470673 110.7089596  45.8126125  45.3098426
 111.3500187  46.8472161  44.4095563 110.8609367  45.5572654  42.1085722
 111.3897133  45.0465109  41.4955884 111.1237586  45.2415185  42.9731255
 109.6147601  37.3364587  57.2308540 108.9388238  37.2358716  57.9010915
 110.4375234  37.1803801  57.6944537 101.3626460  43.5736524  49.8521055
 101.9479896  42.8280212  49.9848960 101.1651298  43.8840480  50.7357719
 104.2165115  46.6087771  44.8683498 103.5475490  47.0933899  44.3847538
 104.0777985  46.8556991  45.7826876  95.9544114  36.1442124  48.5725498
  95.9928214  35.6105715  49.3662617  95.4484407  35.6177329  47.9536476
 108.3570383  48.6431515  51.4666156 108.9088691  48.8063136  52.2315241
 108.6976577  49.2335952  50.7946181 103.3334877  30.9906664  52.0688041
 103.3976203  31.8521495  51.6565438 103.2701997  30.3780666  51.3360399
 102.8087149  33.0629797  55.7161075 103.4359188  32.6806874  56.3298599
 101.9515068  32.8443999  56.0816768 113.2081258  43.4692772  57.3214811
 113.7521162  44.0822730  56.8269765 112.6268103  44.0272350  57.8381824
  99.5852692  34.8706226  41.6479430  99.8806133  33.9616904  41.5946484
  98.6840728  34.8493965  41.3260432 111.4938771  46.5913490  48.4529838
 111.3689910  45.7903230  47.9440784 112.1517862  47.0859683  47.9643808
 103.1146939  32.9462223  47.6306978 102.3933525  33.5598190  47.4914452
 103.9040195  33.4819987  47.5523624 113.5573679  44.3922510  50.0809388
 112.6104015  44.2727861  50.0087715 113.9056452  43.5045008  50.1635650
 105.9173252  30.2816649  53.9047630 106.4407654  30.5278946  54.6673940
 105.6985586  31.1136684  53.4850768 101.3140534  32.5520324  41.7718755
 100.9853240  31.6717703  41.5893861 101.6679904  32.4967992  42.6595144
 110.5620112  44.1875226  46.2813741 110.4145075  43.2591934  46.4621311
 111.3873606  44.2095317  45.7970816 104.4282357  32.8393293  42.1394233
 104.7678429  33.3679215  41.4172841 104.8754477  33.1773700  42.9152799
 114.1654234  45.0103785  47.3678613 115.0900782  44.8046646  47.2303064
 113.9969538  44.7620186  48.2767955 107.1225798  31.2230344  51.5897301
 106.7822618  30.4238157  51.9917981 106.4164804  31.5232055  51.0174134
 107.7742269  28.3079657  50.0424624 108.5968339  27.8340135  49.9203514
 108.0180333  29.0870140  50.5423310 106.4150504  31.3367915  40.3387525
 107.1358866  31.7149168  39.8351242 105.7915808  32.0556792  40.4422503
 110.5581627  32.0413064  41.2745858 110.7745241  32.9237702  40.9734686
 110.0775694  31.6499277  40.5451500 105.2980848  34.9998777  47.8516602
 105.1525429  35.3139080  48.7440884 104.8206052  35.6183678  47.2987501
 107.1577231  31.9901325  47.8997492 107.1438800  31.0942419  47.5629790
 107.8749659  31.9971989  48.5335778 109.0103362  32.4238665  49.9450619
 108.7521140  33.3455736  49.9434950 108.4788402  32.0269100  50.6351084
 113.9549550  45.5289453  42.7240705 114.1286428  44.9635875  41.9714557
 114.4478442  46.3290347  42.5420195  99.7726510  37.5404122  50.7904264
  99.2279978  38.3163930  50.9224538 100.6505860  37.8874926  50.6323385
 106.5614127  30.8715706  43.1685062 106.6830038  29.9432352  43.3675950
 106.2716169  30.8854391  42.2563378 109.4305317  28.5570616  46.3051782
 109.4527014  28.6209949  45.3503761 109.8473376  27.7175125  46.4992288
 119.8088942  38.2925876  44.3431005 120.2520088  37.5433201  43.9450128
 118.9315452  38.2836012  43.9604736 114.9424723  44.8456217  39.8237603
 115.6375628  45.4662910  40.0424918 115.2847873  43.9951568  40.0989981
 100.5592532  36.6674018  53.6834420  99.8174268  36.8156653  54.2699051
 100.2385276  36.9282284  52.8201170 116.8416146  42.2955923  41.3524934
 117.3667470  42.6343195  40.6274254 116.7538499  41.3602938  41.1688068
 108.5036195  46.2089996  53.4814810 108.8123321  45.9639143  54.3537510
 109.3011677  46.4136635  52.9933681 108.5256807  48.3627906  45.7120187
 108.0861797  47.8704284  46.4053044 109.2764924  47.8200873  45.4712262
 101.0049146  44.5539447  45.7144815 101.8307166  44.2543219  45.3343459
 100.6543198  43.7847069  46.1634604 105.9730679  43.9065915  47.7842489
 105.3510688  43.2436620  47.4844717 106.6435546  43.9327047  47.1016136
  99.2057751  42.4725773  46.6733749  98.3689659  42.0447947  46.4917750
  99.1781396  42.6658216  47.6104540 106.0455206  32.3847703  57.3774995
 106.0943362  33.2609826  56.9952764 106.5877721  31.8425096  56.8046638
 116.5310052  42.9288826  56.6576132 115.7405596  42.9112965  56.1180631
 116.2943407  43.4677120  57.4125168 116.6507927  39.7781293  53.9708860
 116.7005932  39.6131300  54.9124383 116.5421851  38.9108552  53.5806741
 105.5344186  42.4569838  41.2600949 105.6832306  43.1405303  40.6067622
 106.3410629  42.4374928  41.7750405 113.9411690  35.7612221  55.2868167
 114.8421552  35.6218685  54.9952165 114.0159664  35.9266675  56.2266344
 108.2754495  33.1379075  54.1321353 107.4057804  33.4312641  53.8603942
 108.5113975  33.7219520  54.8528617 118.1526124  42.1978234  54.2150882
 117.8610932  42.5608215  55.0514343 117.5398255  41.4845242  54.0364214
 119.3521806  39.7631114  46.7353452 120.1868698  40.2020918  46.8991012
 119.4880935  39.2869767  45.9161698 116.4013312  37.3210849  52.6830940
 116.8767434  37.5138495  51.8749791 115.4778878  37.3770034  52.4374324
 103.2896819  38.4835016  42.2662018 103.0442861  37.5797346  42.4642228
 103.4592733  38.4852166  41.3241496 110.9793529  29.3558692  51.6486774
 111.4975473  30.0919719  51.3233262 110.6248662  29.6622686  52.4833533
 102.5592466  34.2163373  39.7648180 101.8661711  34.2907728  39.1088216
 102.3144218  33.4523717  40.2869697 111.2306123  25.7758975  47.1687670
 111.5107877  25.1082164  47.7948097 112.0156730  25.9688070  46.6562334
 109.0339591  44.9517969  38.7312697 108.4613558  45.5708156  38.2783169
 109.6072385  45.5017330  39.2652619 115.1014981  34.1976609  50.9159245
 116.0532404  34.2974706  50.9371469 114.9318432  33.4054877  51.4257330
 113.1229361  31.2832192  51.1018646 112.5279293  31.5637205  50.4065135
 112.8379057  31.7726093  51.8735387 112.2536851  45.2355119  39.8621279
 113.1867524  45.1700680  40.0654154 112.1660064  46.0711386  39.4035812
 114.8824868  44.5520989  36.8225226 114.8038499  44.2180853  37.7160984
 115.7034535  45.0442757  36.8216699 117.5803059  37.4182728  50.0301545
 117.5479379  36.4798729  50.2161229 118.1903683  37.4966765  49.2967370
 109.4186390  36.2878781  36.0728749 110.3645495  36.1584990  36.1417167
 109.0400635  35.5493443  36.5498177 117.7297548  34.2093772  50.0759828
 117.2136596  33.4252229  49.8889757 118.6137496  33.8812488  50.2406348
 115.3908274  27.9534787  46.0355641 115.1933096  27.6449876  46.9198973
 116.0007980  28.6796426  46.1653571 109.3025082  40.3396528  57.5329406
 110.2228092  40.5175127  57.7269453 109.2674665  39.3952573  57.3809105
 107.6029307  34.2128758  36.0083634 106.6960762  33.9161871  36.0846348
 107.8805288  33.9158576  35.1417921  98.5207247  35.5335121  46.4582681
  98.2010032  34.6800429  46.1657055  97.9740676  35.7483699  47.2140648
 102.2987155  38.2497562  50.1752187 102.5173165  39.1814670  50.1940221
 102.7112929  37.8905537  50.9606991 109.2191373  28.7565648  42.1627876
 108.4092101  28.4112732  42.5383122 109.9075790  28.4473191  42.7515487
 111.1481921  27.8343694  43.7852172 111.7012960  28.2539148  44.4442195
 111.3852007  26.9079442  43.8275128 107.1715020  33.8230768  59.5654936
 107.0711747  34.7725125  59.4967027 106.9536562  33.4949007  58.6931006
 106.3728092  31.0715693  36.1495614 107.2347256  31.3970591  36.4091431
 106.5578436  30.2847189  35.6368679  98.3895507  39.1538033  48.4275802
  97.6958979  38.7391986  47.9145757  99.1368498  39.1958569  47.8309221
 114.5260728  29.9444219  43.2930837 113.9459397  30.6029024  42.9108889
 114.2596661  29.1221564  42.8818254 112.9764295  29.3449277  45.4952157
 113.4764073  29.4565812  44.6866476 113.6199902  29.0410330  46.1352965
 107.0346290  37.2527907  58.3819998 106.5513372  38.0528267  58.5883887
 107.1207229  37.2635852  57.4287442 100.3032250  39.0856286  46.3041817
 100.2802938  39.1843974  45.3523700 100.6132886  39.9321437  46.6258983
 102.9619628  41.1432442  50.4188432 103.9162881  41.1116384  50.3518363
 102.7632151  40.6823065  51.2338658 103.5519010  39.7133558  52.9859229
 104.3711899  40.2077636  53.0094067 103.8255818  38.7965526  52.9576797
 113.3085606  32.1044310  42.3487185 112.4211461  32.3893960  42.1307380
 113.7239595  31.9438073  41.5014462 116.6600142  32.1290831  46.0641524
 117.4360532  32.6187283  46.3366141 115.9348276  32.5548885  46.5213394
 119.0972701  32.8418450  47.1215465 119.6917192  32.6014186  46.4108773
 119.1699285  32.1225581  47.7489001 101.3169857  46.6852061  47.4358630
 101.1824325  45.9252462  46.8696628 100.9001919  47.4092961  46.9687418
 112.4528820  41.8688985  36.4435205 113.1564670  42.0738987  37.0592860
 111.7291468  42.4365746  36.7084288 113.2826630  37.6198846  42.5637475
 113.2261831  38.0767397  41.7245107 113.8354972  36.8589530  42.3860318
 117.0931436  33.4088578  43.3887594 116.8368370  33.0085213  44.2195802
 116.4684304  34.1232372  43.2637734 104.4738982  47.5821378  47.6477072
 104.3571367  48.5266811  47.5455762 103.6531429  47.2794940  48.0362871
 114.3615517  42.3071514  38.4933665 115.1961121  41.8752712  38.3111140
 114.1999860  42.1353527  39.4210559 114.0161409  38.8103627  39.8590004
 113.9610213  38.6447898  38.9178448 113.3907464  39.5179660  40.0152194
  98.8053924  34.0471691  53.6851426  99.4512788  33.5370645  54.1738652
  98.5971075  34.7840373  54.2594852 111.3307316  41.1152539  59.1843567
 112.1998476  41.2893191  58.8230202 110.8514068  41.9346956  59.0619296
 107.3257535  28.3111736  39.4375323 107.3136205  29.2553576  39.5943593
 108.2180957  28.1281881  39.1434784 105.4993497  48.2349640  50.8633001
 106.4020743  48.2673250  51.1799496 105.2730867  47.3050091  50.8779336
 107.2547099  46.9880626  47.5243079 106.3042730  46.9882488  47.4107451
 107.5579585  46.2413361  47.0079114 111.1409654  24.9054513  43.6921259
 110.3742050  24.3512999  43.8377942 111.5520359  24.9776381  44.5535411
 103.1451415  31.1939308  57.7826441 104.0082877  30.8376113  57.9929765
 102.5716826  30.8553203  58.4701845 115.6576314  54.6304069  44.5147257
 115.0941179  54.5394006  43.7463545 115.5428709  53.8103974  44.9949750
 120.2809281  53.9303445  54.4836572 120.2697922  53.5356243  53.6117075
 120.4429921  53.1969517  55.0770343 113.2040746  56.1255261  47.3531478
 113.9962038  55.7846086  46.9377777 113.4437396  56.2350236  48.2733631
 115.1631500  55.3864174  40.2248857 115.9362376  54.8393161  40.0861732
 115.5156899  56.2508424  40.4363318 117.0016543  56.7140556  53.4315756
 116.7106409  57.6186187  53.3162422 117.6373527  56.7557084  54.1459825
 117.9272749  54.0917405  50.0217115 118.5236322  53.8673427  49.3074078
 117.9847721  53.3502150  50.6242563 117.4997778  51.5456840  37.8567306
 117.7523298  51.0238362  37.0950769 116.5622337  51.3822986  37.9593990
 117.2194067  53.4484946  40.0591681 117.1030325  52.7729850  40.7272766
 117.3296326  52.9617320  39.2423834 119.5625607  52.9095093  43.7638371
 119.1983815  52.3825714  44.4751292 120.4192723  52.5193562  43.5904856
 119.2031094  47.9384993  38.7599719 119.3705497  48.8065230  39.1270190
 119.0128264  48.1012275  37.8361008 115.4118909  52.8515769  46.4602254
 114.4869406  52.7191983  46.6679946 115.6603322  53.6309988  46.9572196
 119.1820315  50.3942651  39.7446386 119.0619941  50.8399701  40.5831866
 118.4872904  50.7427968  39.1859924 112.7727720  52.4949042  47.2946043
 112.9020101  52.7483521  48.2085455 112.0925171  53.0876750  46.9750698
 116.9427207  63.1646292  43.3936517 116.8651237  64.1154117  43.4724998
 116.3388851  62.8192165  44.0511443 119.4344437  50.3374158  56.0497884
 118.6577771  50.8968078  56.0400749 120.0735000  50.8230941  56.5712754
 117.6890810  53.1459611  55.6115851 118.4305494  53.6844655  55.3350675
 116.9827795  53.7725900  55.7687403 119.5177219  50.2261358  51.5821570
 120.3638414  50.6500772  51.7256219 119.4575857  49.5694983  52.2760133
 119.0402926  55.5864350  45.2290387 119.5041271  55.8652053  44.4395009
 118.7759724  54.6847795  45.0463477 115.9327007  55.1335832  48.1670150
 116.5028364  55.5623100  47.5287634 116.5235119  54.8518417  48.8654335
 117.9771812  51.7087503  42.0379952 118.6795855  52.1608546  42.5053878
 117.6452440  51.0671322  42.6659845 116.4252173  50.2999259  56.4131161
 115.7950834  50.9815540  56.6466558 116.3188261  50.1882341  55.4684299
 111.7197146  49.9671055  47.3397085 110.9296200  50.2228584  46.8637196
 112.2108393  50.7819393  47.4449126 113.6711891  50.3315635  44.2980562
 112.8743054  50.4434329  44.8164058 113.4437483  50.6702287  43.4321452
 119.5017559  56.8560338  52.2463077 119.5661991  57.3180745  53.0821248
 118.7928483  56.2257703  52.3745386 110.0034849  50.2201546  49.7712076
 110.2542887  51.1048556  50.0369652 110.5394397  50.0406147  48.9987168
 119.2165576  58.5228445  42.1142057 119.0811251  59.3679981  42.5426905
 119.7575389  58.7247723  41.3507991 115.7032916  44.6020025  58.7756412
 115.3099862  44.0486224  59.4504056 116.5199056  44.9130604  59.1662930
 112.6694974  56.0403883  42.6869982 113.1819494  56.8347134  42.8375547
 113.3217687  55.3430174  42.6203583 114.4789858  59.1569640  44.7692735
 114.6556487  60.0787604  44.5813719 115.2746692  58.8428059  45.1987115
 118.6200877  46.0177904  56.3676669 119.3610590  46.6185057  56.2881131
 118.8518800  45.2755542  55.8094711 113.7642215  51.2034272  54.6454898
 113.6495730  50.3019529  54.9461997 112.9086733  51.4497968  54.2939715
 115.6021174  60.6747813  50.7703078 116.1528599  60.5464877  49.9980071
 114.7632650  60.9742702  50.4197970 119.3988345  56.9398941  55.1147309
 119.9316682  56.1787229  54.8846617 118.8702426  56.6472593  55.8571463
 110.6343891  54.3692538  43.4629553 111.4719113  54.7789546  43.2463260
 110.8122158  53.4291980  43.4329746 117.8897466  44.5002392  47.6156365
 118.7550463  44.3045201  47.2562255 117.9574975  44.2712744  48.5425722
 115.4959785  46.7304600  44.9872732 116.0703537  46.5079781  44.2545925
 116.0830768  46.7993294  45.7401333 115.8229372  48.7609061  39.0068617
 114.9866685  49.0983748  39.3277892 115.6834142  48.6258041  38.0695754
 117.7982453  43.6045849  43.7147802 117.1446865  43.2894866  43.0904416
 117.7562927  42.9821589  44.4407625 118.9093658  53.8865144  35.6301094
 118.0020720  53.6554397  35.8292243 119.4064690  53.0902763  35.8175075
 120.0881891  53.9877739  40.1525084 119.1793111  53.7036772  40.2497554
 120.1176975  54.4076817  39.2928391 110.6570062  51.7083253  44.1340286
 110.4594461  51.1152614  43.4091353 110.1016726  51.4035463  44.8516225
 118.6366785  51.6006359  46.2534879 118.6915395  50.6480196  46.1777356
 117.8257987  51.7565799  46.7376178 116.5759145  50.2183419  44.0125258
 115.7627011  50.5177590  44.4190450 117.0718139  49.8239108  44.7299740
 118.7267723  60.2141176  45.9459523 118.6843902  60.4402022  45.0168055
 119.6430422  59.9804551  46.0945324 116.0673220  47.7901775  49.6286493
 116.7072599  47.6490534  48.9309456 115.2350751  47.5036288  49.2525095
 116.8433524  57.0904205  45.7421485 117.6374122  56.5954525  45.5404060
 116.1325216  56.5622068  45.3789191 113.1516287  51.2347287  41.8181238
 112.2213875  51.1731742  42.0351200 113.2473759  50.7123240  41.0217879
 113.0701836  47.7602100  44.4059480 113.3308654  48.6747433  44.2968640
 113.8919009  47.2926542  44.5556093 114.5426762  49.1739857  51.5758304
 115.2149815  48.9657219  50.9270953 113.7156548  48.9761943  51.1363537
 119.4204800  57.6633227  49.4219323 119.2815886  57.2952012  50.2945261
 118.6319396  58.1780867  49.2503280 120.0152952  62.7642324  40.7644859
 120.1904708  62.2930367  41.5790482 119.3285740  63.3908090  40.9926120
 114.9454259  52.4482460  52.3360741 114.8074057  51.7162699  52.9372280
 115.8559182  52.3591360  52.0544929 117.5736560  52.1602419  51.8244421
 118.2836178  51.5195611  51.7831040 117.5305868  52.4115314  52.7470602
 116.2865494  49.1467637  53.6440061 115.7502851  48.6958376  54.2961657
 115.6982202  49.2813546  52.9010525 114.5814037  65.9131686  47.5384719
 114.8210635  66.5450211  48.2163738 113.7383234  65.5619726  47.8250078
 115.6967753  48.6056288  36.2066524 114.8197219  48.4845089  35.8428771
 116.1725506  47.8142367  35.9545413 107.2169893  53.3933448  46.3008031
 107.9040933  53.0795178  45.7129047 107.0618021  54.2974813  46.0275283
 112.0204615  48.2823645  50.7293055 111.9362804  47.6749314  49.9943465
 111.1987321  48.7732663  50.7302551 119.0941899  61.7210809  49.9426223
 119.0212070  62.5265780  50.4545528 118.6519292  61.9202775  49.1174245
 118.8831679  60.9582579  43.4529045 118.0999201  61.5004259  43.5467269
 119.5824424  61.4756558  43.8523286 118.7763297  48.9094591  45.8234935
 118.4061085  48.3565632  46.5115840 119.2722390  48.3052725  45.2709935
 116.6052496  59.3692086  52.9189953 117.3061956  60.0028569  53.0719347
 116.1347611  59.7106818  52.1585592 112.2020214  58.9028441  49.8521055
 112.7873651  58.1572129  49.9848960 112.0045053  59.2132398  50.7357719
 115.0558869  61.9379689  44.8683498 114.3869245  62.4225816  44.3847538
 114.9171739  62.1848909  45.7826876 106.7937869  51.4734042  48.5725498
 106.8321968  50.9397632  49.3662617 106.2878162  50.9469247  47.9536476
 119.1964138  63.9723432  51.4666156 119.7482446  64.1355054  52.2315241
 119.5370331  64.5627870  50.7946181 114.1728631  46.3198582  52.0688041
 114.2369958  47.1813413  51.6565438 114.1095751  45.7072584  51.3360399
 113.6480904  48.3921715  55.7161075 114.2752942  48.0098792  56.3298599
 112.7908823  48.1735917  56.0816768 110.4246446  50.1998144  41.6479430
 110.7199888  49.2908822  41.5946484 109.5234482  50.1785883  41.3260432
 113.9540693  48.2754140  47.6306978 113.2327279  48.8890108  47.4914452
 114.7433949  48.8111905  47.5523624 116.7567007  45.6108567  53.9047630
 117.2801409  45.8570863  54.6673940 116.5379340  46.4428602  53.4850768
 112.1534288  47.8812241  41.7718755 111.8246994  47.0009620  41.5893861
 112.5073659  47.8259910  42.6595144 115.2676111  48.1685211  42.1394233
 115.6072184  48.6971132  41.4172841 115.7148232  48.5065617  42.9152799
 117.9619552  46.5522262  51.5897301 117.6216372  45.7530075  51.9917981
 117.2558558  46.8523973  51.0174134 118.6136024  43.6371574  50.0424624
 119.4362093  43.1632052  49.9203514 118.8574087  44.4162058  50.5423310
 117.2544258  46.6659833  40.3387525 117.9752621  47.0441086  39.8351242
 116.6309562  47.3848710  40.4422503 116.1374603  50.3290695  47.8516602
 115.9919183  50.6430998  48.7440884 115.6599806  50.9475595  47.2987501
 117.9970985  47.3193243  47.8997492 117.9832554  46.4234336  47.5629790
 118.7143414  47.3263907  48.5335778 119.8497116  47.7530583  49.9450619
 119.5914894  48.6747654  49.9434950 119.3182157  47.3561018  50.6351084
 110.6120265  52.8696039  50.7904264 110.0673733  53.6455847  50.9224538
 111.4899615  53.2166844  50.6323385 117.4007881  46.2007623  43.1685062
 117.5223793  45.2724269  43.3675950 117.1109924  46.2146309  42.2563378
 111.3986287  51.9965936  53.6834420 110.6568023  52.1448571  54.2699051
 111.0779031  52.2574201  52.8201170 119.3429949  61.5381914  53.4814810
 119.6517076  61.2931061  54.3537510 120.1405431  61.7428552  52.9933681
 119.3650561  63.6919823  45.7120187 118.9255552  63.1996202  46.4053044
 120.1158678  63.1492791  45.4712262 111.8442900  59.8831364  45.7144815
 112.6700920  59.5835136  45.3343459 111.4936952  59.1138987  46.1634604
 116.8124433  59.2357833  47.7842489 116.1904443  58.5728538  47.4844717
 117.4829300  59.2618964  47.1016136 110.0451505  57.8017691  46.6733749
 109.2083414  57.3739865  46.4917750 110.0175151  57.9950134  47.6104540
 116.8848961  47.7139621  57.3774995 116.9337116  48.5901743  56.9952764
 117.4271475  47.1717014  56.8046638 116.3737940  57.7861756  41.2600949
 116.5226061  58.4697220  40.6067622 117.1804384  57.7666846  41.7750405
 119.1148249  48.4670993  54.1321353 118.2451559  48.7604559  53.8603942
 119.3507730  49.0511438  54.8528617 114.1290573  53.8126934  42.2662018
 113.8836615  52.9089264  42.4642228 114.2986488  53.8144084  41.3241496
 113.3986221  49.5455291  39.7648180 112.7055466  49.6199646  39.1088216
 113.1537973  48.7815635  40.2869697 119.8733346  60.2809886  38.7312697
 119.3007313  60.9000073  38.2783169 120.4466140  60.8309248  39.2652619
 118.4423062  49.5420675  36.0083634 117.5354517  49.2453788  36.0846348
 118.7199043  49.2450494  35.1417921 109.3601002  50.8627039  46.4582681
 109.0403786  50.0092347  46.1657055 108.8134430  51.0775617  47.2140648
 113.1380909  53.5789480  50.1752187 113.3566919  54.5106588  50.1940221
 113.5506683  53.2197454  50.9606991 118.0108775  49.1522686  59.5654936
 117.9105502  50.1017043  59.4967027 117.7930317  48.8240925  58.6931006
 117.2121846  46.4007611  36.1495614 118.0741010  46.7262509  36.4091431
 117.3972190  45.6139107  35.6368679 109.2289262  54.4829950  48.4275802
 108.5352733  54.0683903  47.9145757 109.9762253  54.5250487  47.8309221
 117.8740045  52.5819824  58.3819998 117.3907127  53.3820185  58.5883887
 117.9600984  52.5927769  57.4287442 111.1426004  54.4148204  46.3041817
 111.1196693  54.5135891  45.3523700 111.4526641  55.2613355  46.6258983
 113.8013382  56.4724359  50.4188432 114.7556636  56.4408302  50.3518363
 113.6025906  56.0114983  51.2338658 114.3912764  55.0425475  52.9859229
 115.2105653  55.5369554  53.0094067 114.6649572  54.1257443  52.9576797
 112.1563611  62.0143979  47.4358630 112.0218079  61.2544380  46.8696628
 111.7395673  62.7384879  46.9687418 115.3132737  62.9113296  47.6477072
 115.1965121  63.8558728  47.5455762 114.4925183  62.6086857  48.0362871
 109.6447679  49.3763609  53.6851426 110.2906542  48.8662563  54.1738652
 109.4364830  50.1132291  54.2594852 118.1651289  43.6403654  39.4375323
 118.1529959  44.5845494  39.5943593 119.0574711  43.4573799  39.1434784
 116.3387251  63.5641558  50.8633001 117.2414498  63.5965168  51.1799496
 116.1124621  62.6342009  50.8779336 118.0940853  62.3172544  47.5243079
 117.1436484  62.3174406  47.4107451 118.3973339  61.5705279  47.0079114
 113.9845170  46.5231226  57.7826441 114.8476631  46.1668031  57.9929765
 113.4110580  46.1845121  58.4701845 118.0563647  68.7225366  46.3008031
 118.7434687  68.4087096  45.7129047 117.9011776  69.6266731  46.0275283
 117.6331623  66.8025959  48.5725498 117.6715723  66.2689550  49.3662617
 117.1271916  66.2761165  47.9536476 120.1994756  66.1918957  46.4582681
 119.8797541  65.3384265  46.1657055 119.6528185  66.4067535  47.2140648
  95.2639700   9.5124580  30.1181824  95.1863729  10.4632405  30.1970304
  94.6601343   9.1670452  30.7756750  92.9026529  12.2609974  34.2630026
  93.1423128  12.8928498  34.9409044  92.0595726  11.9098014  34.5495385
  97.5176630  10.3201719  38.1911463  98.0694938  10.4833341  38.9560548
  97.8582824  10.9106157  37.5191488  90.4776103   8.3622266  34.1603936
  90.3430571   7.6022667  33.5941934  90.0608166   9.0863166  33.6932725
  93.6345229   9.2591583  34.3722379  93.5177613  10.2037015  34.2701069
  92.8137676   8.9565144  34.7608178  94.6599743   9.9119845  37.5878307
  95.5626990   9.9443455  37.9044802  94.4337113   8.9820296  37.6024643
 104.8182561  16.3074274  31.2392564 104.2547426  16.2164211  30.4708852
 104.7034956  15.4874179  31.7195056 109.4415528  15.6073650  41.2081878
 109.4304169  15.2126448  40.3362382 109.6036168  14.8739722  41.8015650
 102.3646993  17.8025466  34.0776784 103.1568285  17.4616291  33.6623084
 102.6043643  17.9120441  34.9978938 104.3237747  17.0634379  26.9494163
 105.0968623  16.5163366  26.8107039 104.6763146  17.9278628  27.1608625
 106.1622789  18.3910761  40.1561062 105.8712655  19.2956392  40.0407729
 106.7979774  18.4327289  40.8705132 107.0878996  15.7687610  36.7462422
 107.6842568  15.5443632  36.0319385 107.1453968  15.0272355  37.3487870
 111.1212674  18.0772177  37.1510856 110.8213397  18.9797216  37.0426663
 110.7763734  17.8104360  38.0032009 104.5725156  14.5285974  33.1847561
 103.6475652  14.3962188  33.3925252 104.8209569  15.3080193  33.6817503
 101.9333967  14.1719247  34.0191350 102.0626348  14.4253726  34.9330761
 101.2531418  14.7646955  33.6996005 106.1033454  24.8416497  30.1181824
 106.0257484  25.7924322  30.1970304 105.4995098  24.4962370  30.7756750
 106.8497056  14.8229816  42.3361158 107.5911741  15.3614860  42.0595981
 106.1434042  15.4496105  42.4932710 112.3252396  16.9658957  40.9333319
 112.7335752  16.5241367  40.1887952 111.6029657  16.3911584  41.1867512
 112.6481211  17.5260147  34.6885608 112.0190073  17.6905861  33.9861676
 112.2606873  17.9401757  35.4596572 108.2009172  17.2634555  31.9535693
 108.6647518  17.5422258  31.1640316 107.9365971  16.3618000  31.7708784
 105.0933253  16.8106037  34.8915456 105.6634611  17.2393305  34.2532941
 105.6841365  16.5288621  35.5899642 100.8803392  11.6441260  34.0642392
 100.0902446  11.8998789  33.5882503 101.3714640  12.4589598  34.1694432
 114.8967202  18.9846499  36.8147673 115.7184646  18.5826687  36.5330354
 114.8929605  18.8814734  37.7663789 102.8318138  12.0085840  31.0225869
 102.0349301  12.1204534  31.5409364 102.6043730  12.3472492  30.1566759
 108.6623805  18.5330543  38.9708383 108.7268238  18.9950950  39.8066555
 107.9534729  17.9027908  39.0990693  99.1641095  11.8971751  36.4957383
  99.4149134  12.7818761  36.7614959  99.7000644  11.7176352  35.7232475
 108.3771823  20.1998650  28.8387364 108.2417498  21.0450186  29.2672211
 108.9181636  20.4017928  28.0753297 101.8301221  17.7174088  29.4115289
 102.3425741  18.5117339  29.5620853 102.4823933  17.0200379  29.3448890
 103.6396105  20.8339845  31.4938042 103.8162734  21.7557809  31.3059026
 104.4352939  20.5198264  31.9232422 102.9248462  12.8804476  41.3700205
 102.8101977  11.9789734  41.6707304 102.0692979  13.1268173  41.0185022
 110.0040299  20.8222217  42.9687706 109.5604154  20.0358595  42.6508610
 110.6657513  21.0101367  42.3031596 104.7627421  22.3518018  37.4948384
 105.3134846  22.2235082  36.7225378 103.9238897  22.6512907  37.1443277
 112.1021538  21.1025017  40.9969107 112.0840013  21.9233898  40.5049376
 113.0241458  20.9779092  41.2219248 108.5594592  18.6169146  41.8392615
 109.0922929  17.8557434  41.6091923 108.0308673  18.3242798  42.5816770
  99.7950137  16.0462743  30.1874859 100.6325359  16.4559751  29.9708567
  99.9728405  15.1062185  30.1575053 109.9247304  17.7455139  29.3511427
 109.3968666  17.0107898  29.0384665 109.4234807  18.5229815  29.1051396
 110.9767983  24.2732856  25.2743086 110.3029682  24.5764553  25.8828044
 111.3633805  25.0761936  24.9248544 114.4807405  19.2754533  30.6461558
 114.0269733  18.4345443  30.7026748 113.8501372  19.9115932  30.9836338
 112.9240345  21.1131030  31.5811376 113.2163319  21.6736087  30.8623742
 113.4338965  21.4059591  32.3364535  99.8176308  13.3853458  30.8585593
  99.6200708  12.7922819  30.1336659  99.2622972  13.0805668  31.5761531
 107.8873970  21.8911381  32.6704829 107.8450149  22.1172227  31.7413361
 108.8036669  21.6574756  32.8190630 117.0906720  17.5490411  35.2846059
 117.5243227  17.4565701  36.1329113 117.8038301  17.5247912  34.6466075
 106.0039771  18.7674410  32.4666792 106.7980369  18.2724730  32.2649367
 105.2931463  18.2392273  32.1034498 110.8234615  21.1492506  36.8179160
 110.8771637  21.7183442  37.5856876 109.9549396  21.3194391  36.4533197
 102.3122534  12.9117492  28.5426545 101.3820122  12.8501947  28.7596507
 102.4080006  12.3893445  27.7463186 113.0137378  17.7420855  43.3919825
 112.8622885  17.5131407  42.4749909 113.0042058  18.6991456  43.4051170
 109.7822715  15.3152768  38.3766092 110.7114775  15.4663927  38.2035059
 109.3613745  15.4036788  37.5214738 108.5811047  19.3403432  36.1464629
 108.4422132  18.9722216  37.0190567 107.7925643  19.8551071  35.9748587
 109.1759199  24.4412529  27.4890166 109.3510954  23.9700572  28.3035788
 108.4891987  25.0678295  27.7171426 110.1316262  18.7185035  33.5353467
 109.7966094  18.6785805  34.4311117 109.6320207  18.0529751  33.0623877
 104.1060506  14.1252665  39.0606048 103.9680304  13.3932904  39.6617587
 105.0165429  14.0361565  38.7790236 114.7229585  20.7739977  41.4696307
 114.6642131  20.0899198  40.8026890 115.1249103  21.5158967  41.0176933
 103.7420284  27.5901891  34.2630026 103.9816882  28.2220415  34.9409044
 102.8989480  27.2389931  34.5495385 114.7246992  18.7379561  39.7010287
 113.8373771  18.4005483  39.8236685 115.2945543  18.0062593  39.9379052
  96.3776139  15.0703653  33.0253338  97.0647179  14.7565383  32.4374353
  96.2224268  15.9745018  32.7520589 108.2548146  23.3981014  36.6671530
 108.1818317  24.2035985  37.1790834 107.8125539  23.5972980  35.8419551
 108.0437925  22.6352784  30.1774351 107.2605447  23.1774464  30.2712576
 108.7430671  23.1526763  30.5768593 110.7146829  23.2967848  38.8229688
 111.4274801  23.9315313  38.7505590 110.2236858  23.3931714  38.0069690
 105.7658743  21.0462291  39.6435259 106.4668202  21.6798774  39.7964654
 105.2953858  21.3877023  38.8830899 110.5267203  23.6366592  31.5715980
 110.7089597  22.8188248  32.0343732 111.3500189  23.8534284  31.1340870
 110.8609368  22.5634777  28.8331028 111.3897135  22.0527232  28.2201191
 111.1237588  22.2477307  29.6976561 101.3626461  20.5798646  36.5766362
 101.9479898  19.8342334  36.7094266 101.1651299  20.8902603  37.4603026
 104.2165116  23.6149894  31.5928804 103.5475491  24.0996021  31.1092844
 104.0777986  23.8619114  32.5072183  95.9544116  13.1504246  35.2970805
  95.9928215  12.6167837  36.0907923  95.4484408  12.6239452  34.6781782
 108.3570385  25.6493637  38.1911463 108.9088693  25.8125259  38.9560548
 108.6976578  26.2398075  37.5191488 113.2081259  20.4754895  44.0460117
 113.7521163  21.0884853  43.5515072 112.6268104  21.0334473  44.5627130
  99.5852693  11.8768349  28.3724737  99.8806134  10.9679027  28.3191790
  98.6840729  11.8556088  28.0505739 111.4938772  23.5975613  35.1775145
 111.3689911  22.7965353  34.6686090 112.1517863  24.0921806  34.6889115
 113.5573680  21.3984633  36.8054695 112.6104016  21.2789984  36.7333022
 113.9056453  20.5107131  36.8880956 110.5620114  21.1937349  33.0059047
 110.4145076  20.2654056  33.1866617 111.3873607  21.2157440  32.5216122
 114.1654235  22.0165908  34.0923920 115.0900783  21.8108769  33.9548371
 113.9969539  21.7682309  35.0013261 113.9549552  22.5351575  29.4486011
 114.1286429  21.9697998  28.6959864 114.4478443  23.3352470  29.2665501
  99.7726512  14.5466244  37.5149570  99.2279980  15.3226052  37.6469845
 100.6505861  14.8937049  37.3568692 100.5592533  13.6736141  40.4079727
  99.8174269  13.8218776  40.9944358 100.2385278  13.9344406  39.5446476
 108.5036196  23.2152119  40.2060117 108.8123322  22.9701266  41.0782817
 109.3011678  23.4198757  39.7178987 108.5256808  25.3690028  32.4365494
 108.0861798  24.8766407  33.1298350 109.2764925  24.8262996  32.1957569
 101.0049147  21.5601569  32.4390122 101.8307167  21.2605341  32.0588765
 100.6543199  20.7909192  32.8879910 105.9730680  20.9128037  34.5087795
 105.3510690  20.2498742  34.2090023 106.6435547  20.9389169  33.8261443
  99.2057752  19.4787896  33.3979055  98.3689660  19.0510070  33.2163057
  99.1781398  19.6720339  34.3349846 116.5310053  19.9350949  43.3821438
 115.7405597  19.9175088  42.8425938 116.2943408  20.4739242  44.1370475
 105.5344187  19.4631961  27.9846256 105.6832307  20.1467425  27.3312929
 106.3410631  19.4437051  28.4995712 118.1526125  19.2040357  40.9396188
 117.8610934  19.5670337  41.7759649 117.5398257  18.4907365  40.7609521
 103.2896820  15.4897138  28.9907325 103.0442862  14.5859468  29.1887535
 103.4592735  15.4914289  28.0486803 109.0339593  21.9580091  25.4558003
 108.4613560  22.5770278  25.0028475 109.6072386  22.5079453  25.9897925
 109.3025084  17.3458650  44.2574713 110.2228093  17.5237249  44.4514759
 109.2674667  16.4014696  44.1054412  98.5207249  12.5397244  33.1827987
  98.2010033  11.6862552  32.8902361  97.9740677  12.7545822  33.9385955
 102.2987156  15.2559685  36.8997494 102.5173166  16.1876793  36.9185528
 102.7112930  14.8967659  37.6852298  98.3895509  16.1600155  35.1521109
  97.6958980  15.7454108  34.6391063  99.1368500  16.2020692  34.5554528
 107.0346292  14.2590029  45.1065304 106.5513373  15.0590390  45.3129194
 107.1207231  14.2697974  44.1532748 100.3032251  16.0918409  33.0287124
 100.2802939  16.1906096  32.0769007 100.6132888  16.9383560  33.3504290
 102.9619629  18.1494564  37.1433738 103.9162883  18.1178506  37.0763670
 102.7632153  17.6885188  37.9583964 103.5519011  16.7195680  39.7104536
 104.3711900  17.2139759  39.7339373 103.8255819  15.8027648  39.6822103
 101.3169858  23.6914184  34.1603936 101.1824326  22.9314584  33.5941934
 100.9001920  24.4155083  33.6932725 104.4738984  24.5883501  34.3722379
 104.3571368  25.5328933  34.2701069 103.6531430  24.2857062  34.7608178
 111.3307318  18.1214662  45.9088874 112.1998477  18.2955314  45.5475508
 110.8514069  18.9409078  45.7864603 105.4993498  25.2411763  37.5878307
 106.4020745  25.2735373  37.9044802 105.2730868  24.3112213  37.6024643
 107.2547100  23.9942749  34.2488386 106.3042731  23.9944611  34.1352758
 107.5579586  23.2475484  33.7324420 115.6576315  31.6366192  31.2392564
 115.0941181  31.5456129  30.4708852 115.5428710  30.8166096  31.7195056
 120.2809283  30.9365567  41.2081878 120.2697923  30.5418366  40.3362382
 120.4429922  30.2031640  41.8015650 113.2040747  33.1317384  34.0776784
 113.9962039  32.7908208  33.6623084 113.4437397  33.2412359  34.9978938
 115.1631501  32.3926297  26.9494163 115.9362377  31.8455284  26.8107039
 115.5156900  33.2570546  27.1608625 117.0016544  33.7202679  40.1561062
 116.7106410  34.6248310  40.0407729 117.6373528  33.7619207  40.8705132
 117.9272751  31.0979528  36.7462422 118.5236323  30.8735550  36.0319385
 117.9847722  30.3564273  37.3487870 119.5625609  29.9157216  30.4883677
 119.1983816  29.3887837  31.1996599 120.4192725  29.5255685  30.3150163
 115.4118910  29.8577891  33.1847561 114.4869407  29.7254106  33.3925252
 115.6603324  30.6372111  33.6817503 112.7727721  29.5011165  34.0191350
 112.9020103  29.7545644  34.9330761 112.0925173  30.0938873  33.6996005
 116.9427209  40.1708415  30.1181824 116.8651238  41.1216240  30.1970304
 116.3388852  39.8254287  30.7756750 119.4344438  27.3436280  42.7743191
 118.6577773  27.9030201  42.7646055 120.0735002  27.8293063  43.2958061
 117.6890811  30.1521734  42.3361158 118.4305495  30.6906778  42.0595981
 116.9827796  30.7788022  42.4932710 119.5177220  27.2323481  38.3066876
 120.3638416  27.6562895  38.4501525 119.4575858  26.5757105  39.0005439
 119.0402927  32.5926473  31.9535693 119.5041272  32.8714176  31.1640316
 118.7759725  31.6909917  31.7708784 115.9327008  32.1397954  34.8915456
 116.5028365  32.5685223  34.2532941 116.5235120  31.8580539  35.5899642
 117.9771813  28.7149625  28.7625258 118.6795856  29.1670669  29.2299185
 117.6452441  28.0733444  29.3905151 116.4252175  27.3061382  43.1376468
 115.7950835  27.9877663  43.3711865 116.3188262  27.1944464  42.1929606
 111.7197147  26.9733178  34.0642392 110.9296201  27.2290706  33.5882503
 112.2108394  27.7881516  34.1694432 113.6711892  27.3377757  31.0225869
 112.8743056  27.4496451  31.5409364 113.4437485  27.6764409  30.1566759
 119.5017560  33.8622460  38.9708383 119.5661992  34.3242868  39.8066555
 118.7928484  33.2319825  39.0990693 110.0034850  27.2263668  36.4957383
 110.2542888  28.1110678  36.7614959 110.5394398  27.0468270  35.7232475
 119.2165578  35.5290568  28.8387364 119.0811252  36.3742104  29.2672211
 119.7575390  35.7309846  28.0753297 115.7032917  21.6082148  45.5001719
 115.3099863  21.0548346  46.1749363 116.5199058  21.9192726  45.8908236
 112.6694975  33.0466006  29.4115289 113.1819496  33.8409256  29.5620853
 113.3217688  32.3492296  29.3448890 114.4789860  36.1631762  31.4938042
 114.6556488  37.0849727  31.3059026 115.2746693  35.8490181  31.9232422
 118.6200878  23.0240027  43.0921975 119.3610592  23.6247180  43.0126438
 118.8518801  22.2817665  42.5340018 113.7642216  28.2096394  41.3700205
 113.6495731  27.3081651  41.6707304 112.9086734  28.4560091  41.0185022
 115.6021175  37.6809936  37.4948384 116.1528600  37.5526999  36.7225378
 114.7632651  37.9804825  37.1443277 119.3988346  33.9461064  41.8392615
 119.9316683  33.1849352  41.6091923 118.8702427  33.6534716  42.5816770
 110.6343892  31.3754660  30.1874859 111.4719114  31.7851669  29.9708567
 110.8122159  30.4354102  30.1575053 117.8897467  21.5064515  34.3401672
 118.7550464  21.3107323  33.9807561 117.9574976  21.2774866  35.2671029
 115.4959787  23.7366723  31.7118039 116.0703538  23.5141904  30.9791232
 116.0830769  23.8055417  32.4646640 110.6570063  28.7145376  30.8585593
 110.4594463  28.1214736  30.1336659 110.1016727  28.4097586  31.5761531
 118.6366787  28.6068482  32.9780186 118.6915396  27.6542318  32.9022662
 117.8257989  28.7627921  33.4621484 116.5759146  27.2245542  30.7370565
 115.7627012  27.5239712  31.1435757 117.0718141  26.8301231  31.4545047
 118.7267724  37.2203299  32.6704829 118.6843903  37.4464145  31.7413361
 119.6430423  36.9866673  32.8190630 116.0673221  24.7963897  36.3531800
 116.7072601  24.6552656  35.6554763 115.2350752  24.5098411  35.9770402
 116.8433525  34.0966328  32.4666792 117.6374124  33.6016648  32.2649367
 116.1325218  33.5684191  32.1034498 113.1516289  28.2409409  28.5426545
 112.2213877  28.1793865  28.7596507 113.2473761  27.7185362  27.7463186
 113.0701838  24.7664222  31.1304786 113.3308655  25.6809556  31.0213947
 113.8919010  24.2988665  31.2801399 114.5426763  26.1801979  38.3003611
 115.2149816  25.9719342  37.6516260 113.7156550  25.9824065  37.8608843
 119.4204801  34.6695350  36.1464629 119.2815887  34.3014134  37.0190567
 118.6319397  35.1842989  35.9748587 120.0152953  39.7704446  27.4890166
 120.1904709  39.2992489  28.3035788 119.3285741  40.3970212  27.7171426
 114.9454260  29.4544582  39.0606048 114.8074058  28.7224821  39.6617587
 115.8559184  29.3653483  38.7790236 117.5736561  29.1664542  38.5489728
 118.2836179  28.5257734  38.5076346 117.5305869  29.4177437  39.4715909
 116.2865495  26.1529760  40.3685367 115.7502852  25.7020498  41.0206964
 115.6982203  26.2875668  39.6255832 114.5814038  42.9193809  34.2630026
 114.8210637  43.5512333  34.9409044 113.7383235  42.5681849  34.5495385
 107.2169894  30.3995571  33.0253338 107.9040934  30.0857301  32.4374353
 107.0618023  31.3036935  32.7520589 112.0204616  25.2885767  37.4538362
 111.9362805  24.6811437  36.7188772 111.1987323  25.7794786  37.4547858
 119.0941900  38.7272931  36.6671530 119.0212072  39.5327903  37.1790834
 118.6519293  38.9264897  35.8419551 118.8831680  37.9644701  30.1774351
 118.0999202  38.5066382  30.2712576 119.5824425  38.4818681  30.5768593
 118.7763299  25.9156714  32.5480241 118.4061086  25.3627754  33.2361147
 119.2722391  25.3114847  31.9955241 116.6052497  36.3754209  39.6435259
 117.3061957  37.0090692  39.7964654 116.1347612  36.7168940  38.8830899
 112.2020215  35.9090564  36.5766362 112.7873652  35.1634252  36.7094266
 112.0045054  36.2194521  37.4603026 115.0558871  38.9441811  31.5928804
 114.3869246  39.4287939  31.1092844 114.9171740  39.1911032  32.5072183
 106.7937870  28.4796164  35.2970805 106.8321970  27.9459755  36.0907923
 106.2878163  27.9531370  34.6781782 119.1964139  40.9785555  38.1911463
 119.7482447  41.1417176  38.9560548 119.5370333  41.5689993  37.5191488
 114.1728632  23.3260705  38.7933347 114.2369959  24.1875536  38.3810745
 114.1095753  22.7134706  38.0605706 113.6480905  25.3983837  42.4406382
 114.2752944  25.0160915  43.0543906 112.7908824  25.1798039  42.8062074
 110.4246448  27.2060266  28.3724737 110.7199889  26.2970945  28.3191790
 109.5234483  27.1848006  28.0505739 113.9540695  25.2816263  34.3552285
 113.2327280  25.8952231  34.2159758 114.7433950  25.8174028  34.2768931
 116.7567008  22.6170689  40.6292937 117.2801410  22.8632986  41.3919246
 116.5379341  23.4490724  40.2096074 112.1534289  24.8874364  28.4964062
 111.8246995  24.0071743  28.3139168 112.5073660  24.8322033  29.3840451
 115.2676112  25.1747334  28.8639539 115.6072185  25.7033255  28.1418148
 115.7148233  25.5127740  29.6398106 117.9619553  23.5584384  38.3142607
 117.6216374  22.7592198  38.7163287 117.2558560  23.8586095  37.7419441
 118.6136025  20.6433697  36.7669930 119.4362094  20.1694175  36.6448821
 118.8574089  21.4224181  37.2668617 116.1374604  27.3352818  34.5761909
 115.9919185  27.6493121  35.4686191 115.6599807  27.9537718  34.0232808
 117.9970987  24.3255366  34.6242799 117.9832555  23.4296459  34.2875097
 118.7143415  24.3326029  35.2581085 119.8497117  24.7592706  36.6695926
 119.5914895  25.6809776  36.6680256 119.3182158  24.3623140  37.3596390
 110.6120266  29.8758162  37.5149570 110.0673734  30.6517970  37.6469845
 111.4899616  30.2228966  37.3568692 111.3986288  29.0028058  40.4079727
 110.6568024  29.1510694  40.9944358 111.0779032  29.2636324  39.5446476
 119.3429951  38.5444036  40.2060117 119.6517077  38.2993183  41.0782817
 120.1405433  38.7490675  39.7178987 119.3650563  40.6981946  32.4365494
 118.9255553  40.2058325  33.1298350 120.1158680  40.1554914  32.1957569
 111.8442902  36.8893487  32.4390122 112.6700921  36.5897259  32.0588765
 111.4936954  36.1201109  32.8879910 116.8124435  36.2419955  34.5087795
 116.1904444  35.5790660  34.2090023 117.4829302  36.2681087  33.8261443
 110.0451507  34.8079813  33.3979055 109.2083415  34.3801988  33.2163057
 110.0175152  35.0012257  34.3349846 116.8848962  24.7201743  44.1020301
 116.9337118  25.5963866  43.7198071 117.4271476  24.1779136  43.5291945
 116.3737942  34.7923878  27.9846256 116.5226062  35.4759343  27.3312929
 117.1804385  34.7728969  28.4995712 119.1148251  25.4733116  40.8566660
 118.2451560  25.7666682  40.5849249 119.3507731  26.0573561  41.5773924
 114.1290575  30.8189056  28.9907325 113.8836617  29.9151386  29.1887535
 114.2986489  30.8206207  28.0486803 113.3986222  26.5517414  26.4893486
 112.7055467  26.6261769  25.8333522 113.1537974  25.7877757  27.0115003
 119.8733347  37.2872009  25.4558003 119.3007314  37.9062196  25.0028475
 120.4466141  37.8371371  25.9897925 109.3601003  27.8689161  33.1827987
 109.0403788  27.0154470  32.8902361 108.8134431  28.0837740  33.9385955
 113.1380911  30.5851602  36.8997494 113.3566921  31.5168710  36.9185528
 113.5506685  30.2259577  37.6852298 118.0108776  26.1584808  46.2900243
 117.9105503  27.1079165  46.2212334 117.7930318  25.8303047  45.4176313
 109.2289263  31.4892073  35.1521109 108.5352735  31.0746026  34.6391063
 109.9762254  31.5312609  34.5554528 117.8740046  29.5881947  45.1065304
 117.3907128  30.3882307  45.3129194 117.9600985  29.5989892  44.1532748
 111.1426006  31.4210327  33.0287124 111.1196694  31.5198014  32.0769007
 111.4526642  32.2675478  33.3504290 113.8013384  33.4786482  37.1433738
 114.7556637  33.4470424  37.0763670 113.6025907  33.0177106  37.9583964
 114.3912766  32.0487598  39.7104536 115.2105655  32.5431677  39.7339373
 114.6649573  31.1319566  39.6822103 112.1563612  39.0206101  34.1603936
 112.0218080  38.2606502  33.5941934 111.7395675  39.7447001  33.6932725
 115.3132738  39.9175418  34.3722379 115.1965122  40.8620851  34.2701069
 114.4925185  39.6148980  34.7608178 109.6447680  26.3825732  40.4096733
 110.2906544  25.8724686  40.8983958 109.4364831  27.1194413  40.9840158
 116.3387252  40.5703680  37.5878307 117.2414499  40.6027290  37.9044802
 116.1124622  39.6404131  37.6024643 118.0940854  39.3234667  34.2488386
 117.1436485  39.3236528  34.1352758 118.3973341  38.5767401  33.7324420
 113.9845171  23.5293349  44.5071747 114.8476633  23.1730154  44.7175072
 113.4110582  23.1907244  45.1947152 118.0563648  45.7287488  33.0253338
 118.7434688  45.4149218  32.4374353 117.9011777  46.6328853  32.7520589
 117.6331625  43.8088082  35.2970805 117.6715724  43.2751673  36.0907923
 117.1271917  43.2823287  34.6781782 120.1994758  43.1981079  33.1827987
 119.8797542  42.3446387  32.8902361 119.6528186  43.4129657  33.9385955
   2.5830431  54.9316697 104.9271244   1.9092130  55.2348394 105.5356201
   2.9696253  55.7345777 104.5776701   6.5487172  52.5102180 106.2011067
   7.2438076  53.1308873 106.4198381   6.8910322  51.6597531 106.4763445
   3.8599300  52.9001082 106.2394743   4.7929973  52.8346644 106.4427618
   3.7722513  53.7357349 105.7809275   6.4887317  52.2166952 103.1998690
   6.4100948  51.8826816 104.0934448   7.3096983  52.7088720 103.1990163
   4.0591268  49.5334948 102.8208669   4.7627119  49.7384950 103.4366324
   3.3353917  50.1011710 103.0857752  14.5962241  60.4887128 114.9662305
  15.2340651  60.3693875 114.2625645  14.4783084  61.4367972 115.0250257
   7.2638763  62.2950033 110.8920721   6.7003628  62.2039970 110.1237009
   7.1491158  61.4749937 111.3723214  12.8438322  65.9621000 106.2035186
  12.1926301  66.5475081 105.8169200  13.6382684  66.4927195 106.2630223
   6.7693949  63.0510138 106.6022320   7.5424825  62.5039125 106.4635196
   7.1219348  63.9154387 106.8136782   9.1060227  59.2102804 104.2340770
   9.3585747  58.6884325 103.4724233   8.1684786  59.0468949 104.3367454
  14.1503509  58.2138582 112.0415513  14.9366599  57.7958005 111.6905930
  14.4142214  59.1184674 112.2097162  14.3213587  63.6511432 106.7404170
  13.6859420  63.7246059 107.4525075  13.9910993  64.2405031 106.0623249
  19.5511937  58.1513815 112.9448492  20.2837108  57.5813032 113.1786321
  18.7951292  57.7635416 113.3854997   8.8256515  61.1130910 106.4365145
   8.7092773  60.4375813 107.1046229   8.9358775  60.6263284 105.6197298
  11.1688056  60.5741057 110.1411834  10.8046264  60.0471678 110.8524756
  12.0255172  60.1839526 109.9678320  10.8093543  55.6030956 105.1373183
  10.9767946  56.4711193 105.5043654  10.6190712  55.7658238 104.2134472
  10.7882764  58.0588614 106.1219850  10.6682389  58.5045665 106.9605330
  10.0935353  58.4073932 105.5633388  16.4867830  58.5310087 106.9500184
  17.3985686  58.7637474 106.7747881  15.9777477  59.1147131 106.3875262
  15.0937413  63.5135906 114.3413765  14.4646275  63.6781620 113.6389833
  14.7063075  63.9277515 115.1124729  18.9726644  64.4490343 111.6958129
  18.2877683  64.8289245 111.1455162  19.0570494  65.0585670 112.4290077
  10.6465374  63.2510314 111.6063850  11.1103720  63.5298017 110.8168473
  10.3822173  62.3493758 111.4236941   9.5834261  59.3733466 108.4153415
  10.2858304  59.8254510 108.8827342   9.2514889  58.7317285 109.0433309
  17.3423404  64.9722258 116.4675830  18.1640848  64.5702445 116.1858511
  17.3385807  64.8690492 117.4191946  25.4329397  61.3161006 112.8160801
  24.6793105  60.7468404 112.6604806  25.5676938  61.2823671 113.7631436
  10.8228025  66.1874409 108.4915521  10.6873700  67.0325944 108.9200368
  11.3637838  66.3893686 107.7281454   4.2757423  63.7049847 109.0643446
   4.7881943  64.4993097 109.2149010   4.9280135  63.0076137 108.9977047
   2.2406339  62.0338501 109.8403016   3.0781561  62.4435509 109.6236724
   2.4184607  61.0937943 109.8103210  14.1370771  59.7013582 105.5286849
  13.6217395  60.4718186 105.7675237  13.8648080  59.0278718 106.1519911
  19.1105046  62.4545936 107.4640023  18.3334488  62.1157096 107.0195185
  19.7896527  62.4598559 106.7894988  13.9257075  57.5740674 107.3546630
  13.6207210  57.8886823 108.2056774  14.8787517  57.6522094 107.3973963
  12.3703506  63.7330897 109.0039584  11.8424868  62.9983657 108.6912822
  11.8691009  64.5105573 108.7579553  17.3496352  61.9279917 114.1206631
  16.6920027  62.6179179 114.2086759  18.1536752  62.3176349 114.4640617
  16.1601811  60.2824290 112.1710572  16.6733693  60.9154282 112.6732282
  16.8103035  59.6825486 111.8053932   7.4291821  56.4255024 105.3842081
   6.5929133  56.7629711 105.7051356   7.2896591  56.2904004 104.4469218
  10.5156107  61.5511107 102.0074557   9.6083168  61.3200361 102.2065706
  11.0127139  60.7548727 102.1948539  13.4224186  70.2608614 104.9271244
  12.7485884  70.5640311 105.5356201  13.8090007  71.0637695 104.5776701
  13.4217690  59.1565161 109.5471593  14.1689509  59.6686559 109.2378715
  13.6909279  58.8349214 110.4075987  11.6944340  61.6523702 106.5298548
  10.7855559  61.3682735 106.6271017  11.7239424  62.0722781 105.6701854
  16.9263607  65.2630292 110.2989715  16.4725935  64.4221202 110.3554906
  16.2957574  65.8991690 110.6364495  15.8696527  56.1922278 111.5290383
  15.1319284  55.6799664 111.8600625  16.1223301  55.7522659 110.7173659
  15.3696547  67.1006788 111.2339533  15.6619521  67.6611845 110.5151899
  15.8795167  67.3935349 111.9892692  11.3920428  63.1932446 103.8686626
  10.9539858  62.4768305 103.4092263  12.1330869  63.4208561 103.3071717
   8.1821594  57.8829382 110.3898722   7.3689460  58.1823553 110.7963914
   8.6780588  57.4885071 111.1073204  10.3330172  67.8787139 112.3232986
  10.2906351  68.1047986 111.3941518  11.2492871  67.6450514 112.4718788
  19.5093543  61.4689643 109.9262945  19.3711441  61.6591239 108.9984134
  19.1529761  62.2309026 110.3830996  19.5362922  63.5366170 114.9374216
  19.9699429  63.4441459 115.7857270  20.2494503  63.5123670 114.2994232
   8.4495973  64.7550168 112.1194949   9.2436571  64.2600489 111.9177524
   7.7387665  64.2268032 111.7562655   4.7578736  58.8993250 108.1954702
   3.8276324  58.8377706 108.4124664   4.8536208  58.3769203 107.3991343
  20.3978472  63.5789870 117.4707102  20.5914362  64.4835681 117.7166376
  20.2979090  63.1197290 118.3045687  11.6215401  70.4288287 107.1418323
  11.7967156  69.9576330 107.9563945  10.9348189  71.0554053 107.3699583
  12.5772464  64.7060793 113.1881624  12.2422296  64.6661563 114.0839274
  12.0776410  64.0405509 112.7152034  15.5131655  62.0516827 103.4618684
  14.8960826  61.3263656 103.3651736  15.0448144  62.8126188 103.1185758
   7.3030201  56.2702252 102.5839988   6.4259668  56.1491053 102.2202235
   7.7787954  55.4788330 102.3318877  10.4894127  68.6228542 109.8302508
   9.7061649  69.1650222 109.9240733  11.1886873  69.1402522 110.2296750
  21.6520535  60.1363537 114.1155005  21.6410411  61.0188253 113.7448938
  20.7837914  59.7835088 113.9209542  14.8820558  63.1894859 110.0475137
  13.9476837  63.3096321 109.8779842  15.0597227  62.2867326 109.7835147
  18.2693110  59.0312178 110.5825171  18.7353562  59.8640170 110.5085474
  18.7200610  58.5657160 111.2870430  16.3369341  65.3755999 107.5811323
  16.6129185  65.2612594 108.4905197  15.4673839  64.9773484 107.5423497
  12.9723405  69.6242350 111.2244137  13.1545799  68.8064006 111.6871889
  13.7956391  69.8410042 110.7869027  13.3065570  68.5510535 108.4859186
  13.8353337  68.0402990 107.8729348  13.5693790  68.2353066 109.3504719
   2.0308895  57.8644107 108.0252894   2.3262336  56.9554785 107.9719947
   1.1296931  57.8431846 107.7033896  13.9394974  69.5851371 114.8303302
  13.8146113  68.7841111 114.3214247  14.5974065  70.0797564 114.3417272
  16.0029882  67.3860391 116.4582852  15.0560218  67.2665742 116.3861179
  16.3512656  66.4982889 116.5409113  13.0076316  67.1813107 112.6587204
  12.8601278  66.2529815 112.8394774  13.8329809  67.2033198 112.1744280
   6.8738560  55.8331174 108.5167696   7.2134632  56.3617096 107.7946305
   7.3210680  56.1711581 109.2926263  16.6110438  68.0041666 113.7452077
  17.5356985  67.7984527 113.6076528  16.4425741  67.7558067 114.6541419
   8.8606707  54.3305796 106.7160989   9.5815070  54.7087049 106.2124706
   8.2372011  55.0494673 106.8195967  13.0037830  55.0350945 107.6519322
  13.2201444  55.9175583 107.3508150  12.5231897  54.6437158 106.9224964
  16.4005754  68.5227334 109.1014169  16.5742631  67.9573756 108.3488021
  16.8934645  69.3228228 108.9193658  22.2545145  61.2863756 110.7204468
  22.6976291  60.5371082 110.3223592  21.3771655  61.2773893 110.3378200
  17.3880926  67.8394098 106.2011067  18.0831831  68.4600791 106.4198381
  17.7304076  66.9889449 106.4763445  19.2872349  65.2893803 107.7298398
  19.8123673  65.6281076 107.0047718  19.1994702  64.3540819 107.5461532
   7.9800389  65.4507719 107.6374413   8.1288510  66.1343184 106.9841086
   8.7866833  65.4312809 108.1523869  21.7978010  62.7568995 113.1126916
  22.6324901  63.1958799 113.2764476  21.9337138  62.2807648 112.2935162
   5.7353022  61.4772897 108.6435482   5.4899064  60.5735227 108.8415692
   5.9048937  61.4790047 107.7014960   5.0048670  57.2101254 106.1421643
   4.3117915  57.2845609 105.4861679   4.7600422  56.4461598 106.6643160
  11.4795795  67.9455850 105.1086160  10.9069762  68.5646037 104.6556632
  12.0528588  68.4955211 105.6426082  14.6993054  68.2293000 106.2394743
  15.6323728  68.1638561 106.4427618  14.6116267  69.0649267 105.7809275
  17.3281071  67.5458870 103.1998690  17.2494703  67.2118734 104.0934448
  18.1490738  68.0380638 103.1990163  20.0259262  60.4120609 116.4075009
  19.9935582  59.4736610 116.5934693  20.6359886  60.4904646 115.6740834
  11.8642593  59.2816662 102.4502213  12.8101698  59.1522870 102.5190631
  11.4856838  58.5431324 102.9271641  25.8435812  61.4736616 115.5481046
  26.5739201  61.2121904 116.1088749  25.2342758  60.7365338 115.5883114
  23.9251109  59.6144479 116.1455497  23.1984273  59.4800444 115.5371988
  23.5098396  59.9221307 116.9512215  10.0485510  57.2066639 102.3857098
   9.1416966  56.9099751 102.4619812  10.3261491  56.9096457 101.5191384
   8.8184295  54.0653574 102.5269077   9.6803459  54.3908472 102.7864895
   9.0034639  53.2785070 102.0142143  16.9716931  52.9382100 109.6704300
  16.3915600  53.5966904 109.2882353  16.7052864  52.1159445 109.2591718
  15.7541809  55.0982191 108.7260649  14.8667664  55.3831841 108.5080843
  16.1695799  54.9375954 107.8787925  19.1056346  55.1228712 112.4414988
  19.8816736  55.6125164 112.7139605  18.3804480  55.5486766 112.8986857
  21.5428904  55.8356331 113.4988928  22.1373395  55.5952067 112.7882237
  21.6155488  55.1163462 114.1262465  14.8985023  64.8626865 102.8208669
  15.6020873  65.0676868 103.4366324  14.1747672  65.4303627 103.0857752
  15.7282833  60.6136727 108.9410939  15.6718035  61.0705278 108.1018571
  16.2811176  59.8527411 108.7633781  19.5387639  56.4026459 109.7661058
  19.2824573  56.0023094 110.5969266  18.9140507  57.1170253 109.6411197
  23.8499977  59.1422532 112.2732350  23.2899535  59.2115721 113.0463912
  23.2443480  58.9663517 111.5531846  16.8071720  65.3009395 104.8707129
  17.6417324  64.8690593 104.6884603  16.6456063  65.1291408 105.7984023
  16.4617613  61.8041508 106.2363468  16.4066416  61.6385779 105.2951912
  15.8363668  62.5117541 106.3925658   9.7713738  51.3049617 105.8148786
   9.7592408  52.2491457 105.9717057  10.6637160  51.1219762 105.5208247
  25.4355995  75.8179046 114.9662305  26.0734405  75.6985793 114.2625645
  25.3176838  76.7659890 115.0250257  22.2445702  75.7706474 114.9023830
  21.9064213  75.6547539 114.0144365  23.1135470  75.3697639 114.8824836
  18.1032517  77.6241950 110.8920721  17.5397383  77.5331887 110.1237009
  17.9884912  76.8041855 111.3723214  23.6832076  81.2912918 106.2035186
  23.0320056  81.8766998 105.8169200  24.4776439  81.8219113 106.2630223
  17.6087703  78.3802055 106.6022320  18.3818579  77.8331042 106.4635196
  17.9613102  79.2446305 106.8136782  19.9453981  74.5394721 104.2340770
  20.1979502  74.0176243 103.4724233  19.0078540  74.3760867 104.3367454
  24.9897264  73.5430500 112.0415513  25.7760353  73.1249923 111.6905930
  25.2535968  74.4476592 112.2097162  25.1607341  78.9803350 106.7404170
  24.5253174  79.0537976 107.4525075  24.8304748  79.5696949 106.0623249
  30.3905691  73.4805733 112.9448492  31.1230863  72.9104950 113.1786321
  29.6345047  73.0927333 113.3854997  19.6650270  76.4422827 106.4365145
  19.5486528  75.7667731 107.1046229  19.7752530  75.9555201 105.6197298
  22.0081811  75.9032974 110.1411834  21.6440018  75.3763595 110.8524756
  22.8648927  75.5131443 109.9678320  27.9131111  67.1927307 117.4043100
  27.5814436  68.0622718 117.1804315  27.3176725  66.8763591 118.0837131
  21.6487298  70.9322874 105.1373183  21.8161700  71.8003110 105.5043654
  21.4584467  71.0950156 104.2134472  24.4062631  79.3939853 116.8039013
  24.1063354  80.2964892 116.6954820  24.0613690  79.1272036 117.6560166
  17.8575112  75.8453650 112.8375718  16.9325609  75.7129864 113.0453409
  18.1059526  76.6247869 113.3345660  27.8059775  71.9122393 114.4836451
  26.8976652  71.8437802 114.1895212  27.7547371  72.3894338 115.3118276
  21.6276519  73.3880532 106.1219850  21.5076144  73.8337582 106.9605330
  20.9329107  73.7365849 105.5633388  29.6721421  70.1138832 116.2614324
  29.0295801  70.4071365 115.6154119  29.1676350  69.9991752 117.0667521
  27.3261585  73.8602005 106.9500184  28.2379441  74.0929391 106.7747881
  26.8171232  74.4439049 106.3875262  21.9633422  73.2199239 117.9595033
  22.8094618  73.6438653 118.1029682  21.9032060  72.5632864 118.6533596
  25.9331167  78.8427823 114.3413765  25.3040030  79.0073537 113.6389833
  25.5456829  79.2569433 115.1124729  29.8120399  79.7782261 111.6958129
  29.1271437  80.1581162 111.1455162  29.8964248  80.3877588 112.4290077
  25.1132868  70.8803608 119.6176207  24.8693800  71.6345668 119.0810483
  25.3892798  71.2588955 120.4523454  27.0671331  77.4242220 118.2953472
  27.2788226  78.0673980 117.6187854  27.0201079  76.5904537 117.8275403
  24.6697560  70.0360041 115.1990045  23.8082039  70.3341294 115.4906782
  24.6959994  70.2530440 114.2671077  21.4859129  78.5802231 111.6063850
  21.9497474  78.8589934 110.8168473  21.2215927  77.6785676 111.4236941
  20.4228015  74.7025384 108.4153415  21.1252058  75.1546427 108.8827342
  20.0908644  74.0609203 109.0433309  28.1817159  80.3014175 116.4675830
  29.0034602  79.8994363 116.1858511  28.1779561  80.1982410 117.4191946
  16.1168094  73.3253516 110.6754026  15.3199258  73.4372210 111.1937521
  15.8893687  73.6640168 109.8094916  36.2723152  76.6452924 112.8160801
  35.5186860  76.0760322 112.6604806  36.4070693  76.6115588 113.7631436
  21.6621780  81.5166326 108.4915521  21.5267454  82.3617862 108.9200368
  22.2031592  81.7185604 107.7281454  15.1151177  79.0341764 109.0643446
  15.6275698  79.8285015 109.2149010  15.7673890  78.3368055 108.9977047
  25.0114243  65.0396888 117.0214414  24.6678513  65.9298530 116.9453525
  25.3793206  64.8498546 116.1583999  13.0800094  77.3630419 109.8403016
  13.9175316  77.7727427 109.6236724  13.2578362  76.4229861 109.8103210
  24.9764526  75.0305499 105.5286849  24.4611149  75.8010104 105.7675237
  24.7041834  74.3570635 106.1519911  22.5611637  69.8755200 110.5872088
  21.7053233  69.4862050 110.4077726  22.9738589  69.9547161 109.7271873
  24.0910784  67.4101543 114.9863647  23.5875579  67.3731678 114.1731453
  24.3841390  68.3194286 115.0460304  20.3353669  67.4940273 113.9929829
  21.2006666  67.2983082 113.6335719  20.4031178  67.2650625 114.9199186
  29.9498800  77.7837854 107.4640023  29.1728243  77.4449013 107.0195185
  30.6290281  77.7890477 106.7894988  24.7650829  72.9032591 107.3546630
  24.4600965  73.2178741 108.2056774  25.7181271  72.9814011 107.3973963
  23.2097261  79.0622815 109.0039584  22.6818623  78.3275574 108.6912822
  22.7084764  79.8397491 108.7579553  28.1890107  77.2571835 114.1206631
  27.5313781  77.9471097 114.2086759  28.9930506  77.6468267 114.4640617
  17.9415989  69.7242481 111.3646196  18.5159740  69.5017662 110.6319389
  18.5286971  69.7931175 112.1174797  26.9995566  75.6116208 112.1710572
  27.5127448  76.2446200 112.6732282  27.6496790  75.0117403 111.8053932
  18.2685576  71.7546942 105.3842081  17.4322888  72.0921629 105.7051356
  18.1290345  71.6195922 104.4469218  20.2438656  66.5983730 110.0921265
  19.5903069  66.2832747 109.4677880  20.2019130  65.9759470 110.8181088
  21.3549861  76.8803025 102.0074557  20.4476923  76.6492278 102.2065706
  21.8520893  76.0840644 102.1948539  24.2617940  85.5900532 104.9271244
  23.5879639  85.8932229 105.5356201  24.6483762  86.3929612 104.5776701
  23.4776397  73.0865663 114.4168913  22.5598958  73.3080610 114.2590601
  23.8936540  73.1611974 113.5580620  24.2611444  74.4857079 109.5471593
  25.0083263  74.9978476 109.2378715  24.5303034  74.1641132 110.4075987
  22.5338095  76.9815620 106.5298548  21.6249314  76.6974653 106.6271017
  22.5633178  77.4014698 105.6701854  27.7657362  80.5922209 110.2989715
  27.3119689  79.7513119 110.3554906  27.1351329  81.2283608 110.6364495
  26.7090282  71.5214195 111.5290383  25.9713038  71.0091582 111.8600625
  26.9617055  71.0814577 110.7173659  26.2090301  82.4298706 111.2339533
  26.5013276  82.9903763 110.5151899  26.7188922  82.7227267 111.9892692
  26.8101909  64.2990447 112.1232152  27.1160786  63.4387811 111.8358067
  27.5354514  64.8908068 111.9231146  13.1026265  74.7021134 110.5113750
  12.9050665  74.1090495 109.7864816  12.5472929  74.3973344 111.2289689
  21.0822989  74.5944240 112.6308343  21.1371598  73.6418077 112.5550819
  20.2714191  74.7503679 113.1149641  22.2314182  78.5224363 103.8686626
  21.7933612  77.8060222 103.4092263  22.9724623  78.7500478 103.3071717
  19.0215349  73.2121300 110.3898722  18.2083214  73.5115471 110.7963914
  19.5174343  72.8176989 111.1073204  21.1723926  83.2079057 112.3232986
  21.1300105  83.4339903 111.3941518  22.0886625  82.9742432 112.4718788
  24.6189560  73.6763125 119.2213616  24.9738948  73.9034598 120.0808081
  25.2661691  74.0081501 118.5990871  30.3487297  76.7981561 109.9262945
  30.2105196  76.9883156 108.9984134  29.9923516  77.5600943 110.3830996
  18.5129423  70.7839656 116.0059957  19.1528803  70.6428415 115.3082920
  17.6806954  70.4974169 115.6298559  30.3756677  78.8658088 114.9374216
  30.8093183  78.7733377 115.7857270  31.0888257  78.8415588 114.2994232
  19.2889727  80.0842086 112.1194949  20.0830326  79.5892406 111.9177524
  18.5781420  79.5559949 111.7562655  15.5972491  74.2285168 108.1954702
  14.6670079  74.1669623 108.4124664  15.6929963  73.7061121 107.3991343
  15.5158040  70.7539981 110.7832943  15.7764857  71.6685314 110.6742104
  16.3375212  70.2864423 110.9329556  31.2372226  78.9081788 117.4707102
  31.4308116  79.8127599 117.7166376  31.1372844  78.4489207 118.3045687
  22.8908537  68.7939679 119.9697429  22.2436452  69.4929628 119.8761905
  23.6609552  69.2275823 120.3373677  23.0672671  76.6320444 118.0294249
  23.9964731  76.7831603 117.8563216  22.6463701  76.7204464 117.1742895
  22.4609155  85.7580205 107.1418323  22.6360911  85.2868248 107.9563945
  21.7741943  86.3845971 107.3699583  23.4166218  80.0352711 113.1881624
  23.0816051  79.9953481 114.0839274  22.9170164  79.3697427 112.7152034
  26.3525410  77.3808745 103.4618684  25.7354581  76.6555573 103.3651736
  25.8841898  78.1418105 103.1185758  18.1423956  71.5994169 102.5839988
  17.2653422  71.4782970 102.2202235  18.6181709  70.8080248 102.3318877
  28.0096949  80.0547237 119.3538444  27.1223728  79.7173159 119.4764843
  28.5795500  79.3230269 119.5907209  21.3287882  83.9520460 109.8302508
  20.5455404  84.4942140 109.9240733  22.0280627  84.4694439 110.2296750
  24.6384532  69.7615089 112.4736714  25.1353232  69.0085052 112.1537784
  23.8671514  69.7979406 111.9079923  32.4914289  75.4655455 114.1155005
  32.4804166  76.3480170 113.7448938  31.6231669  75.1127006 113.9209542
  25.7214313  78.5186776 110.0475137  24.7870591  78.6388239 109.8779842
  25.8990981  77.6159243 109.7835147  21.2219501  71.9032472 112.2008398
  20.8517288  71.3503513 112.8889304  21.7178593  71.2990606 111.6483398
  29.1086864  74.3604096 110.5825171  29.5747316  75.1932087 110.5085474
  29.5594365  73.8949077 111.2870430  27.1763095  80.7047917 107.5811323
  27.4522939  80.5904512 108.4905197  26.3067594  80.3065402 107.5423497
  27.0803527  66.7284683 114.6216073  26.1666607  66.9588910 114.7898280
  27.5096628  66.8123127 115.4730105  26.8509985  74.9174575 117.1215967
  26.1981436  75.1650482 116.4668419  27.2290365  74.1038713 116.7878444
  23.8117159  84.9534268 111.2244137  23.9939554  84.1355924 111.6871889
  24.6350145  85.1701960 110.7869027  24.1459325  83.8802453 108.4859186
  24.6747091  83.3694908 107.8729348  24.4087544  83.5644983 109.3504719
  12.8702650  73.1936025 108.0252894  13.1656091  72.2846703 107.9719947
  11.9690685  73.1723764 107.7033896  24.7788729  84.9143289 114.8303302
  24.6539868  84.1133029 114.3214247  25.4367820  85.4089482 114.3417272
  16.3996897  71.2692021 114.0080442  15.6783482  71.8827989 113.8687916
  17.1890153  71.8049786 113.9297088  26.8423637  82.7152309 116.4582852
  25.8953972  82.5957660 116.3861179  27.1906410  81.8274807 116.5409113
  14.5990491  70.8750122 108.1492219  14.2703197  69.9947501 107.9667325
  14.9529862  70.8197791 109.0368608  23.8470070  82.5105025 112.6587204
  23.6995033  81.5821732 112.8394774  24.6723564  82.5325116 112.1744280
  17.7132314  71.1623092 108.5167696  18.0528387  71.6909013 107.7946305
  18.1604435  71.5003498 109.2926263  27.4504192  83.3333584 113.7452077
  28.3750740  83.1276445 113.6076528  27.2819495  83.0849985 114.6541419
  20.4075755  69.5460143 117.9670764  20.0672576  68.7467956 118.3691444
  19.7014762  69.8461854 117.3947598  21.0592227  66.6309455 116.4198088
  21.8818296  66.1569933 116.2976978  21.3030291  67.4099939 116.9196774
  19.7000462  69.6597714 106.7160989  20.4208824  70.0378966 106.2124706
  19.0765766  70.3786591 106.8195967  23.8431585  70.3642863 107.6519322
  24.0595199  71.2467501 107.3508150  23.3625652  69.9729076 106.9224964
  18.5830806  73.3228576 114.2290066  18.4375387  73.6368879 115.1214348
  18.1056010  73.9413476 113.6760965  20.4427189  70.3131124 114.2770956
  20.4288758  69.4172217 113.9403254  21.1599617  70.3201788 114.9109242
  22.2953319  70.7468464 116.3224083  22.0371097  71.6685535 116.3208414
  21.7638360  70.3498899 117.0124547  27.2399508  83.8519251 109.1014169
  27.4136386  83.2865674 108.3488021  27.7328399  84.6520146 108.9193658
  19.8464085  69.1945504 109.5458526  19.9679996  68.2662150 109.7449413
  19.5566127  69.2084190 108.6336841  22.7155275  66.8800415 112.6825246
  22.7376972  66.9439748 111.7277225  23.1323334  66.0404923 112.8765752
  33.0938899  76.6155674 110.7204468  33.5370045  75.8662999 110.3223592
  32.2165410  76.6065811 110.3378200  28.2274681  83.1686016 106.2011067
  28.9225585  83.7892708 106.4198381  28.5697831  82.3181367 106.4763445
  30.1266104  80.6185721 107.7298398  30.6517428  80.9572994 107.0047718
  30.0388456  79.6832736 107.5461532  29.9357885  78.1011091 120.3482324
  29.9855890  77.9361099 121.2897847  29.8271808  77.2338350 119.9580205
  18.8194144  80.7799637 107.6374413  18.9682264  81.4635101 106.9841086
  19.6260587  80.7604727 108.1523869  27.2261647  74.0842019 121.6641631
  28.1271510  73.9448484 121.3725629  27.3009622  74.2496474 122.6039808
  31.4376082  80.5208033 120.5924346  31.1460890  80.8838013 121.4287807
  30.8248213  79.8075041 120.4137678  32.6371764  78.0860912 113.1126916
  33.4718655  78.5250717 113.2764476  32.7730893  77.6099566 112.2935162
  29.6863270  75.6440647 119.0604404  30.1617392  75.8368294 118.2523255
  28.7628835  75.6999833 118.8147787  16.5746777  76.8064814 108.6435482
  16.3292819  75.9027144 108.8415692  16.7442691  76.8081965 107.7014960
  24.2643487  67.6788491 118.0260237  24.7825430  68.4149518 117.7006726
  23.9098619  67.9852484 118.8606997  15.8442424  72.5393172 106.1421643
  15.1511669  72.6137527 105.4861679  15.5994176  71.7753516 106.6643160
  24.5156081  64.0988773 113.5461134  24.7957834  63.4311962 114.1721561
  25.3006688  64.2917869 113.0335798  22.3189549  83.2747767 105.1086160
  21.7463516  83.8937954 104.6556632  22.8922343  83.8247129 105.6426082
  28.3864939  72.5206407 117.2932709  29.3382362  72.6204505 117.3144933
  28.2168389  71.7284676 117.8030794  26.4079319  69.6061991 117.4792110
  25.8129251  69.8867003 116.7838599  26.1229015  70.0955892 118.2508851
  25.5386809  83.5584917 106.2394743  26.4717482  83.4930479 106.4427618
  25.4510022  84.3941184 105.7809275  28.1674826  82.8750788 103.1998690
  28.0888457  82.5410651 104.0934448  28.9884492  83.3672556 103.1990163
  30.8653017  75.7412527 116.4075009  30.8329337  74.8028528 116.5934693
  31.4753640  75.8196564 115.6740834  22.7036348  74.6108580 102.4502213
  23.6495452  74.4814788 102.5190631  22.3250593  73.8723242 102.9271641
  31.0147505  72.5323571 116.4533292  30.4986554  71.7482027 116.2663221
  31.8987454  72.2042287 116.6179811  28.6758232  66.2764586 112.4129105
  28.4783053  65.9679674 113.2972437  29.2857938  67.0026225 112.5427035
  36.6829567  76.8028534 115.5481046  37.4132955  76.5413822 116.1088749
  36.0736512  76.0657256 115.5883114  34.7644864  74.9436397 116.1455497
  34.0378027  74.8092361 115.5371988  34.3492151  75.2513225 116.9512215
  20.8879265  72.5358556 102.3857098  19.9810720  72.2391669 102.4619812
  21.1655246  72.2388375 101.5191384  22.5041331  67.0795446 108.5401339
  21.6942059  66.7342531 108.9156585  23.1925747  66.7702990 109.1288951
  24.4331879  66.1573493 110.1625636  24.9862917  66.5768946 110.8215659
  24.6701965  65.2309241 110.2048592  19.6578049  69.3945492 102.5269077
  20.5197213  69.7200390 102.7864895  19.8428394  68.6076988 102.0142143
  27.8110686  68.2674018 109.6704300  27.2309355  68.9258822 109.2882353
  27.5446619  67.4451363 109.2591718  26.2614252  67.6679076 111.8725621
  26.7614031  67.7795610 111.0639939  26.9049860  67.3640129 112.5126429
  26.5935564  70.4274109 108.7260649  25.7061419  70.7123759 108.5080843
  27.0089553  70.2667872 107.8787925  29.9450100  70.4520629 112.4414988
  30.7210490  70.9417082 112.7139605  29.2198234  70.8778684 112.8986857
  32.3822659  71.1648249 113.4988928  32.9767150  70.9243985 112.7882237
  32.4549242  70.4455379 114.1262465  25.7378777  80.1918783 102.8208669
  26.4414628  80.3968786 103.4366324  25.0141426  80.7595545 103.0857752
  26.5676588  75.9428644 108.9410939  26.5111789  76.3997196 108.1018571
  27.1204930  75.1819329 108.7633781  30.3781394  71.7318376 109.7661058
  30.1218328  71.3315012 110.5969266  29.7534262  72.4462170 109.6411197
  34.6893731  74.4714450 112.2732350  34.1293289  74.5407639 113.0463912
  34.0837235  74.2955434 111.5531846  27.6465475  80.6301312 104.8707129
  28.4811079  80.1982511 104.6884603  27.4849818  80.4583326 105.7984023
  27.3011367  77.1333426 106.2363468  27.2460171  76.9677697 105.2951912
  26.6757422  77.8409459 106.3925658  20.6107492  66.6341535 105.8148786
  20.5986162  67.5783375 105.9717057  21.5030914  66.4511680 105.5208247
  24.4259612  63.2284311 110.0694723  23.6592008  62.6742798 110.2151405
  24.8370317  63.3006180 110.9308875  36.2749750  91.1470963 114.9662305
  36.9128160  91.0277711 114.2625645  36.1570593  92.0951807 115.0250257
  33.0839456  91.0998392 114.9023830  32.7457968  90.9839456 114.0144365
  33.9529224  90.6989557 114.8824836  28.9426272  92.9533868 110.8920721
  28.3791137  92.8623805 110.1237009  28.8278667  92.1333772 111.3723214
  34.5225831  96.6204836 106.2035186  33.8713810  97.2058916 105.8169200
  35.3170193  97.1511031 106.2630223  28.4481458  93.7093973 106.6022320
  29.2212334  93.1622960 106.4635196  28.8006857  94.5738222 106.8136782
  30.7847736  89.8686639 104.2340770  31.0373256  89.3468160 103.4724233
  29.8472295  89.7052784 104.3367454  35.8291018  88.8722417 112.0415513
  36.6154108  88.4541841 111.6905930  36.0929723  89.7768510 112.2097162
  36.0001096  94.3095268 106.7404170  35.3646929  94.3829894 107.4525075
  35.6698502  94.8988866 106.0623249  41.2299446  88.8097651 112.9448492
  41.9624617  88.2396867 113.1786321  40.4738801  88.4219251 113.3854997
  30.5044024  91.7714745 106.4365145  30.3880282  91.0959648 107.1046229
  30.6146284  91.2847119 105.6197298  32.8475565  91.2324892 110.1411834
  32.4833772  90.7055513 110.8524756  33.7042681  90.8423361 109.9678320
  38.7524866  82.5219225 117.4043100  38.4208191  83.3914636 117.1804315
  38.1570479  82.2055509 118.0837131  32.4881052  86.2614792 105.1373183
  32.6555455  87.1295028 105.5043654  32.2978221  86.4242073 104.2134472
  35.2456385  94.7231771 116.8039013  34.9457109  95.6256809 116.6954820
  34.9007445  94.4563954 117.6560166  28.6968867  91.1745567 112.8375718
  27.7719363  91.0421782 113.0453409  28.9453280  91.9539787 113.3345660
  38.6453529  87.2414311 114.4836451  37.7370407  87.1729719 114.1895212
  38.5941125  87.7186256 115.3118276  32.4670273  88.7172449 106.1219850
  32.3469898  89.1629500 106.9605330  31.7722861  89.0657767 105.5633388
  40.5115176  85.4430749 116.2614324  39.8689556  85.7363282 115.6154119
  40.0070104  85.3283670 117.0667521  38.1655339  89.1893922 106.9500184
  39.0773195  89.4221309 106.7747881  37.6564986  89.7730967 106.3875262
  32.8027177  88.5491157 117.9595033  33.6488372  88.9730571 118.1029682
  32.7425815  87.8924781 118.6533596  36.7724922  94.1719741 114.3413765
  36.1433784  94.3365455 113.6389833  36.3850584  94.5861350 115.1124729
  40.6514153  95.1074179 111.6958129  39.9665192  95.4873080 111.1455162
  40.7358003  95.7169505 112.4290077  35.9526622  86.2095525 119.6176207
  35.7087554  86.9637586 119.0810483  36.2286553  86.5880873 120.4523454
  37.9065085  92.7534138 118.2953472  38.1181980  93.3965898 117.6187854
  37.8594833  91.9196454 117.8275403  35.5091314  85.3651958 115.1990045
  34.6475793  85.6633212 115.4906782  35.5353749  85.5822357 114.2671077
  32.3252883  93.9094149 111.6063850  32.7891229  94.1881852 110.8168473
  32.0609682  93.0077594 111.4236941  31.2621770  90.0317301 108.4153415
  31.9645813  90.4838345 108.8827342  30.9302398  89.3901120 109.0433309
  39.0210913  95.6306093 116.4675830  39.8428357  95.2286280 116.1858511
  39.0173316  95.5274327 117.4191946  26.9561849  88.6545433 110.6754026
  26.1593012  88.7664127 111.1937521  26.7287441  88.9932085 109.8094916
  47.1116906  91.9744842 112.8160801  46.3580614  91.4052240 112.6604806
  47.2464447  91.9407506 113.7631436  32.5015534  96.8458244 108.4915521
  32.3661209  97.6909780 108.9200368  33.0425347  97.0477522 107.7281454
  25.9544932  94.3633682 109.0643446  26.4669452  95.1576932 109.2149010
  26.6067644  93.6659972 108.9977047  35.8507998  80.3688806 117.0214414
  35.5072267  81.2590448 116.9453525  36.2186960  80.1790463 116.1583999
  23.9193848  92.6922336 109.8403016  24.7569070  93.1019345 109.6236724
  24.0972116  91.7521778 109.8103210  35.8158280  90.3597417 105.5286849
  35.3004904  91.1302022 105.7675237  35.5435589  89.6862553 106.1519911
  33.4005391  85.2047118 110.5872088  32.5446988  84.8153968 110.4077726
  33.8132343  85.2839079 109.7271873  34.9304538  82.7393461 114.9863647
  34.4269334  82.7023596 114.1731453  35.2235145  83.6486204 115.0460304
  31.1747424  82.8232191 113.9929829  32.0400421  82.6274999 113.6335719
  31.2424933  82.5942542 114.9199186  40.7892555  93.1129772 107.4640023
  40.0121997  92.7740931 107.0195185  41.4684036  93.1182395 106.7894988
  35.6044584  88.2324509 107.3546630  35.2994719  88.5470658 108.2056774
  36.5575026  88.3105929 107.3973963  34.0491015  94.3914732 109.0039584
  33.5212377  93.6567492 108.6912822  33.5478518  95.1689409 108.7579553
  39.0283861  92.5863753 114.1206631  38.3707536  93.2763014 114.2086759
  39.8324261  92.9760185 114.4640617  28.7809743  85.0534399 111.3646196
  29.3553495  84.8309580 110.6319389  29.3680725  85.1223093 112.1174797
  37.8389320  90.9408126 112.1710572  38.3521202  91.5738117 112.6732282
  38.4890544  90.3409321 111.8053932  29.1079330  87.0838860 105.3842081
  28.2716642  87.4213546 105.7051356  28.9684100  86.9487839 104.4469218
  31.0832411  81.9275648 110.0921265  30.4296823  81.6124665 109.4677880
  31.0412885  81.3051388 110.8181088  32.1943616  92.2094943 102.0074557
  31.2870677  91.9784196 102.2065706  32.6914648  91.4132562 102.1948539
  35.1011695 100.9192450 104.9271244  34.4273393 101.2224147 105.5356201
  35.4877516 101.7221530 104.5776701  34.3170151  88.4157581 114.4168913
  33.3992712  88.6372528 114.2590601  34.7330295  88.4903892 113.5580620
  35.1005199  89.8148997 109.5471593  35.8477018  90.3270394 109.2378715
  35.3696788  89.4933049 110.4075987  33.3731849  92.3107537 106.5298548
  32.4643068  92.0266570 106.6271017  33.4026933  92.7306616 105.6701854
  38.6051116  95.9214127 110.2989715  38.1513444  95.0805037 110.3554906
  37.9745083  96.5575525 110.6364495  37.5484036  86.8506113 111.5290383
  36.8106793  86.3383499 111.8600625  37.8010810  86.4106495 110.7173659
  37.0484056  97.7590624 111.2339533  37.3407030  98.3195681 110.5151899
  37.5582676  98.0519185 111.9892692  37.6495663  79.6282365 112.1232152
  37.9554540  78.7679728 111.8358067  38.3748268  80.2199985 111.9231146
  23.9420019  90.0313052 110.5113750  23.7444419  89.4382412 109.7864816
  23.3866683  89.7265262 111.2289689  31.9216743  89.9236158 112.6308343
  31.9765353  88.9709994 112.5550819  31.1107945  90.0795597 113.1149641
  33.0707937  93.8516281 103.8686626  32.6327367  93.1352140 103.4092263
  33.8118378  94.0792396 103.3071717  29.8609103  88.5413218 110.3898722
  29.0476969  88.8407388 110.7963914  30.3568097  88.1468907 111.1073204
  32.0117681  98.5370975 112.3232986  31.9693860  98.7631821 111.3941518
  32.9280380  98.3034349 112.4718788  35.4583315  89.0055042 119.2213616
  35.8132702  89.2326515 120.0808081  36.1055446  89.3373419 118.5990871
  41.1881052  92.1273478 109.9262945  41.0498950  92.3175074 108.9984134
  40.8317270  92.8892861 110.3830996  29.3523178  86.1131573 116.0059957
  29.9922557  85.9720332 115.3082920  28.5200708  85.8266087 115.6298559
  41.2150431  94.1950005 114.9374216  41.6486938  94.1025294 115.7857270
  41.9282012  94.1707506 114.2994232  30.1283482  95.4134004 112.1194949
  30.9224080  94.9184324 111.9177524  29.4175174  94.8851867 111.7562655
  26.4366245  89.5577086 108.1954702  25.5063833  89.4961541 108.4124664
  26.5323717  89.0353038 107.3991343  26.3551794  86.0831898 110.7832943
  26.6158611  86.9977232 110.6742104  27.1768967  85.6156341 110.9329556
  42.0765981  94.2373706 117.4707102  42.2701871  95.1419516 117.7166376
  41.9766599  93.7781125 118.3045687  33.7302292  84.1231596 119.9697429
  33.0830207  84.8221546 119.8761905  34.5003307  84.5567740 120.3373677
  33.9066426  91.9612361 118.0294249  34.8358486  92.1123521 117.8563216
  33.4857456  92.0496382 117.1742895  33.3002910 101.0872122 107.1418323
  33.4754665 100.6160165 107.9563945  32.6135698 101.7137888 107.3699583
  34.2559973  95.3644628 113.1881624  33.9209805  95.3245398 114.0839274
  33.7563919  94.6989344 112.7152034  37.1919164  92.7100663 103.4618684
  36.5748335  91.9847491 103.3651736  36.7235653  93.4710023 103.1185758
  28.9817710  86.9286087 102.5839988  28.1047177  86.8074888 102.2202235
  29.4575463  86.1372165 102.3318877  38.8490703  95.3839155 119.3538444
  37.9617482  95.0465077 119.4764843  39.4189254  94.6522186 119.5907209
  32.1681636  99.2812377 109.8302508  31.3849158  99.8234058 109.9240733
  32.8674382  99.7986357 110.2296750  35.4778287  85.0907007 112.4736714
  35.9746986  84.3376969 112.1537784  34.7065268  85.1271324 111.9079923
  43.3308044  90.7947372 114.1155005  43.3197920  91.6772088 113.7448938
  42.4625423  90.4418923 113.9209542  36.5608067  93.8478694 110.0475137
  35.6264346  93.9680157 109.8779842  36.7384736  92.9451161 109.7835147
  32.0613255  87.2324390 112.2008398  31.6911043  86.6795430 112.8889304
  32.5572348  86.6282523 111.6483398  39.9480619  89.6896013 110.5825171
  40.4141071  90.5224005 110.5085474  40.3988119  89.2240995 111.2870430
  38.0156850  96.0339835 107.5811323  38.2916694  95.9196429 108.4905197
  37.1461348  95.6357320 107.5423497  37.9197281  82.0576600 114.6216073
  37.0060361  82.2880827 114.7898280  38.3490383  82.1415044 115.4730105
  37.6903740  90.2466492 117.1215967  37.0375190  90.4942400 116.4668419
  38.0684120  89.4330631 116.7878444  34.6510914 100.2826186 111.2244137
  34.8333308  99.4647841 111.6871889  35.4743900 100.4993878 110.7869027
  34.9853079  99.2094371 108.4859186  35.5140846  98.6986825 107.8729348
  35.2481299  98.8936901 109.3504719  23.7096404  88.5227942 108.0252894
  24.0049845  87.6138621 107.9719947  22.8084440  88.5015682 107.7033896
  35.6182483 100.2435206 114.8303302  35.4933622  99.4424946 114.3214247
  36.2761574 100.7381400 114.3417272  27.2390651  86.5983939 114.0080442
  26.5177237  87.2119907 113.8687916  28.0283907  87.1341704 113.9297088
  37.6817391  98.0444226 116.4582852  36.7347727  97.9249578 116.3861179
  38.0300164  97.1566725 116.5409113  25.4384246  86.2042040 108.1492219
  25.1096952  85.3239419 107.9667325  25.7923617  86.1489709 109.0368608
  34.6863825  97.8396943 112.6587204  34.5388787  96.9113650 112.8394774
  35.5117318  97.8617033 112.1744280  28.5526069  86.4915010 108.5167696
  28.8922141  87.0200931 107.7946305  28.9998189  86.8295416 109.2926263
  38.2897947  98.6625501 113.7452077  39.2144494  98.4568363 113.6076528
  38.1213250  98.4141903 114.6541419  31.2469510  84.8752061 117.9670764
  30.9066330  84.0759874 118.3691444  30.5408516  85.1753771 117.3947598
  31.8985982  81.9601373 116.4198088  32.7212051  81.4861851 116.2976978
  32.1424045  82.7391857 116.9196774  30.5394216  84.9889631 106.7160989
  31.2602579  85.3670884 106.2124706  29.9159520  85.7078508 106.8195967
  34.6825339  85.6934780 107.6519322  34.8988953  86.5759418 107.3508150
  34.2019406  85.3020994 106.9224964  29.4224560  88.6520494 114.2290066
  29.2769141  88.9660797 115.1214348  28.9449764  89.2705394 113.6760965
  31.2820943  85.6423042 114.2770956  31.2682512  84.7464135 113.9403254
  31.9993371  85.6493705 114.9109242  33.1347074  86.0760382 116.3224083
  32.8764852  86.9977452 116.3208414  32.6032114  85.6790816 117.0124547
  38.0793263  99.1811169 109.1014169  38.2530140  98.6157591 108.3488021
  38.5722154  99.9812064 108.9193658  30.6857839  84.5237422 109.5458526
  30.8073750  83.5954068 109.7449413  30.3959882  84.5376108 108.6336841
  33.5549030  82.2092332 112.6825246  33.5770726  82.2731665 111.7277225
  33.9717089  81.3696841 112.8765752  43.9332654  91.9447592 110.7204468
  44.3763800  91.1954917 110.3223592  43.0559164  91.9357728 110.3378200
  39.0668435  98.4977933 106.2011067  39.7619340  99.1184626 106.4198381
  39.4091585  97.6473285 106.4763445  40.9659858  95.9477639 107.7298398
  41.4911182  96.2864912 107.0047718  40.8782211  95.0124654 107.5461532
  40.7751639  93.4303009 120.3482324  40.8249644  93.2653016 121.2897847
  40.6665563  92.5630268 119.9580205  29.6587898  96.1091555 107.6374413
  29.8076019  96.7927019 106.9841086  30.4654342  96.0896645 108.1523869
  38.0655402  89.4133937 121.6641631  38.9665265  89.2740402 121.3725629
  38.1403376  89.5788392 122.6039808  43.4765519  93.4152830 113.1126916
  44.3112410  93.8542634 113.2764476  43.6124647  92.9391483 112.2935162
  40.5257025  90.9732565 119.0604404  41.0011146  91.1660211 118.2523255
  39.6022590  91.0291751 118.8147787  27.4140531  92.1356732 108.6435482
  27.1686573  91.2319062 108.8415692  27.5836446  92.1373883 107.7014960
  35.1037241  83.0080409 118.0260237  35.6219185  83.7441435 117.7006726
  34.7492374  83.3144402 118.8606997  26.6836179  87.8685090 106.1421643
  25.9905424  87.9429445 105.4861679  26.4387931  87.1045433 106.6643160
  35.3549835  79.4280691 113.5461134  35.6351589  78.7603880 114.1721561
  36.1400442  79.6209787 113.0335798  33.1583304  98.6039685 105.1086160
  32.5857271  99.2229872 104.6556632  33.7316097  99.1539047 105.6426082
  39.2258694  87.8498325 117.2932709  40.1776116  87.9496423 117.3144933
  39.0562144  87.0576594 117.8030794  37.2473073  84.9353908 117.4792110
  36.6523005  85.2158921 116.7838599  36.9622770  85.4247809 118.2508851
  36.3780563  98.8876835 106.2394743  37.3111237  98.8222397 106.4427618
  36.2903776  99.7233102 105.7809275  39.0068580  98.2042705 103.1998690
  38.9282212  97.8702569 104.0934448  39.8278247  98.6964473 103.1990163
  41.7046771  91.0704445 116.4075009  41.6723091  90.1320445 116.5934693
  42.3147395  91.1488481 115.6740834  33.5430102  89.9400498 102.4502213
  34.4889207  89.8106706 102.5190631  33.1644347  89.2015160 102.9271641
  41.8541260  87.8615488 116.4533292  41.3380308  87.0773945 116.2663221
  42.7381208  87.5334205 116.6179811  39.5151987  81.6056504 112.4129105
  39.3176808  81.2971592 113.2972437  40.1251692  82.3318143 112.5427035
  47.5223321  92.1320452 115.5481046  48.2526710  91.8705740 116.1088749
  46.9130267  91.3949174 115.5883114  45.6038618  90.2728314 116.1455497
  44.8771782  90.1384279 115.5371988  45.1885905  90.5805143 116.9512215
  31.7273019  87.8650474 102.3857098  30.8204475  87.5683587 102.4619812
  32.0049000  87.5680292 101.5191384  33.3435085  82.4087364 108.5401339
  32.5335813  82.0634449 108.9156585  34.0319502  82.0994908 109.1288951
  35.2725633  81.4865411 110.1625636  35.8256672  81.9060864 110.8215659
  35.5095720  80.5601159 110.2048592  30.4971804  84.7237409 102.5269077
  31.3590968  85.0492308 102.7864895  30.6822148  83.9368905 102.0142143
  38.6504440  83.5965936 109.6704300  38.0703109  84.2550740 109.2882353
  38.3840373  82.7743280 109.2591718  37.1008007  82.9970994 111.8725621
  37.6007785  83.1087528 111.0639939  37.7443615  82.6932046 112.5126429
  37.4329318  85.7566026 108.7260649  36.5455173  86.0415677 108.5080843
  37.8483308  85.5959790 107.8787925  40.7843855  85.7812547 112.4414988
  41.5604245  86.2709000 112.7139605  40.0591989  86.2070601 112.8986857
  43.2216413  86.4940166 113.4988928  43.8160904  86.2535902 112.7882237
  43.2942997  85.7747297 114.1262465  36.5772532  95.5210701 102.8208669
  37.2808382  95.7260703 103.4366324  35.8535181  96.0887463 103.0857752
  37.4070342  91.2720562 108.9410939  37.3505544  91.7289114 108.1018571
  37.9598685  90.5111247 108.7633781  41.2175148  87.0610294 109.7661058
  40.9612082  86.6606930 110.5969266  40.5928016  87.7754088 109.6411197
  45.5287486  89.8006367 112.2732350  44.9687044  89.8699557 113.0463912
  44.9230989  89.6247352 111.5531846  38.4859229  95.9593230 104.8707129
  39.3204833  95.5274429 104.6884603  38.3243572  95.7875244 105.7984023
  38.1405122  92.4625343 106.2363468  38.0853925  92.2969615 105.2951912
  37.5151177  93.1701376 106.3925658  31.4501247  81.9633452 105.8148786
  31.4379917  82.9075292 105.9717057  32.3424669  81.7803598 105.5208247
  35.2653366  78.5576229 110.0694723  34.4985762  78.0034716 110.2151405
  35.6764071  78.6298098 110.9308875  39.7820026 108.2825786 110.8920721
  39.2184892 108.1915723 110.1237009  39.6672421 107.4625690 111.3723214
  45.3619585 111.9496753 106.2035186  44.7107565 112.5350834 105.8169200
  46.1563948 112.4802948 106.2630223  39.2875212 109.0385891 106.6022320
  40.0606088 108.4914878 106.4635196  39.6400611 109.9030140 106.8136782
  41.6241490 105.1978557 104.2340770  41.8767011 104.6760078 103.4724233
  40.6866049 105.0344702 104.3367454  46.6684773 104.2014335 112.0415513
  47.4547862 103.7833758 111.6905930  46.9323477 105.1060427 112.2097162
  46.8394850 109.6387185 106.7404170  46.2040683 109.7121812 107.4525075
  46.5092257 110.2280784 106.0623249  41.3437779 107.1006663 106.4365145
  41.2274037 106.4251566 107.1046229  41.4540039 106.6139037 105.6197298
  43.6869320 106.5616810 110.1411834  43.3227527 106.0347431 110.8524756
  44.5436436 106.1715279 109.9678320  43.3274807 101.5906709 105.1373183
  43.4949209 102.4586946 105.5043654  43.1371976 101.7533991 104.2134472
  39.5362621 106.5037485 112.8375718  38.6113118 106.3713699 113.0453409
  39.7847035 107.2831704 113.3345660  43.3064028 104.0464367 106.1219850
  43.1863653 104.4921418 106.9605330  42.6116616 104.3949685 105.5633388
  49.0049094 104.5185840 106.9500184  49.9166950 104.7513227 106.7747881
  48.4958741 105.1022884 106.3875262  46.3485069 100.6943876 115.1990045
  45.4869548 100.9925130 115.4906782  46.3747503 100.9114275 114.2671077
  43.1646638 109.2386067 111.6063850  43.6284983 109.5173770 110.8168473
  42.9003436 108.3369511 111.4236941  42.1015524 105.3609219 108.4153415
  42.8039567 105.8130263 108.8827342  41.7696153 104.7193038 109.0433309
  37.7955603 103.9837351 110.6754026  36.9986767 104.0956045 111.1937521
  37.5681196 104.3224003 109.8094916  43.3409289 112.1750162 108.4915521
  43.2054963 113.0201697 108.9200368  43.8819101 112.3769439 107.7281454
  36.7938686 109.6925600 109.0643446  37.3063207 110.4868850 109.2149010
  37.4461399 108.9951890 108.9977047  46.6901752  95.6980724 117.0214414
  46.3466022  96.5882365 116.9453525  47.0580715  95.5082381 116.1583999
  34.7587603 108.0214254 109.8403016  35.5962825 108.4311262 109.6236724
  34.9365870 107.0813696 109.8103210  46.6552035 105.6889335 105.5286849
  46.1398658 106.4593939 105.7675237  46.3829343 105.0154471 106.1519911
  44.2399146 100.5339035 110.5872088  43.3840742 100.1445886 110.4077726
  44.6526098 100.6130996 109.7271873  45.7698293  98.0685379 114.9863647
  45.2663088  98.0315514 114.1731453  46.0628899  98.9778121 115.0460304
  42.0141178  98.1524108 113.9929829  42.8794175  97.9566917 113.6335719
  42.0818687  97.9234460 114.9199186  51.6286309 108.4421689 107.4640023
  50.8515752 108.1032849 107.0195185  52.3077790 108.4474312 106.7894988
  46.4438338 103.5616427 107.3546630  46.1388474 103.8762576 108.2056774
  47.3968780 103.6397847 107.3973963  44.8884770 109.7206650 109.0039584
  44.3606132 108.9859410 108.6912822  44.3872273 110.4981326 108.7579553
  39.6203498 100.3826316 111.3646196  40.1947249 100.1601498 110.6319389
  40.2074480 100.4515011 112.1174797  39.9473085 102.4130777 105.3842081
  39.1110397 102.7505464 105.7051356  39.8077854 102.2779757 104.4469218
  41.9226165  97.2567565 110.0921265  41.2690578  96.9416582 109.4677880
  41.8806639  96.6343306 110.8181088  43.0337370 107.5386860 102.0074557
  42.1264432 107.3076114 102.2065706  43.5308402 106.7424480 102.1948539
  45.9405449 116.2484367 104.9271244  45.2667148 116.5516064 105.5356201
  46.3271271 117.0513448 104.5776701  45.1563906 103.7449499 114.4168913
  44.2386467 103.9664446 114.2590601  45.5724049 103.8195809 113.5580620
  45.9398953 105.1440914 109.5471593  46.6870772 105.6562312 109.2378715
  46.2090543 104.8224967 110.4075987  44.2125604 107.6399455 106.5298548
  43.3036823 107.3558488 106.6271017  44.2420687 108.0598534 105.6701854
  48.3877791 102.1798031 111.5290383  47.6500547 101.6675417 111.8600625
  48.6404564 101.7398412 110.7173659  48.4889418  94.9574283 112.1232152
  48.7948295  94.0971646 111.8358067  49.2142023  95.5491903 111.9231146
  34.7813774 105.3604969 110.5113750  34.5838174 104.7674330 109.7864816
  34.2260438 105.0557179 111.2289689  42.7610498 105.2528076 112.6308343
  42.8159107 104.3001912 112.5550819  41.9501700 105.4087515 113.1149641
  43.9101691 109.1808199 103.8686626  43.4721121 108.4644058 103.4092263
  44.6512132 109.4084314 103.3071717  40.7002858 103.8705135 110.3898722
  39.8870723 104.1699306 110.7963914  41.1961852 103.4760824 111.1073204
  40.1916932 101.4423491 116.0059957  40.8316312 101.3012250 115.3082920
  39.3594463 101.1558004 115.6298559  40.9677236 110.7425921 112.1194949
  41.7617835 110.2476242 111.9177524  40.2568929 110.2143785 111.7562655
  37.2760000 104.8869003 108.1954702  36.3457588 104.8253459 108.4124664
  37.3717472 104.3644956 107.3991343  37.1945549 101.4123816 110.7832943
  37.4552366 102.3269149 110.6742104  38.0162721 100.9448259 110.9329556
  44.1396664 116.4164040 107.1418323  44.3148420 115.9452083 107.9563945
  43.4529452 117.0429806 107.3699583  48.0312919 108.0392580 103.4618684
  47.4142090 107.3139409 103.3651736  47.5629407 108.8001941 103.1185758
  39.8211465 102.2578005 102.5839988  38.9440931 102.1366806 102.2202235
  40.2969218 101.4664083 102.3318877  46.3172041 100.4198925 112.4736714
  46.8140741  99.6668887 112.1537784  45.5459023 100.4563241 111.9079923
  47.4001822 109.1770612 110.0475137  46.4658100 109.2972074 109.8779842
  47.5778490 108.2743079 109.7835147  42.9007010 102.5616308 112.2008398
  42.5304797 102.0087348 112.8889304  43.3966102 101.9574441 111.6483398
  50.7874373 105.0187931 110.5825171  51.2534825 105.8515923 110.5085474
  51.2381874 104.5532913 111.2870430  48.8550604 111.3631752 107.5811323
  49.1310448 111.2488347 108.4905197  47.9855103 110.9649237 107.5423497
  48.7591036  97.3868518 114.6216073  47.8454116  97.6172745 114.7898280
  49.1884137  97.4706962 115.4730105  34.5490159 103.8519860 108.0252894
  34.8443600 102.9430538 107.9719947  33.6478194 103.8307599 107.7033896
  38.0784406 101.9275857 114.0080442  37.3570991 102.5411824 113.8687916
  38.8677661 102.4633621 113.9297088  36.2778000 101.5333958 108.1492219
  35.9490706 100.6531337 107.9667325  36.6317371 101.4781626 109.0368608
  39.3919823 101.8206927 108.5167696  39.7315896 102.3492849 107.7946305
  39.8391944 102.1587334 109.2926263  42.0863264 100.2043978 117.9670764
  41.7460085  99.4051791 118.3691444  41.3802271 100.5045689 117.3947598
  42.7379736  97.2893291 116.4198088  43.5605805  96.8153769 116.2976978
  42.9817800  98.0683774 116.9196774  41.3787971 100.3181549 106.7160989
  42.0996333 100.6962802 106.2124706  40.7553275 101.0370426 106.8195967
  45.5219093 101.0226698 107.6519322  45.7382708 101.9051336 107.3508150
  45.0413161 100.6312911 106.9224964  40.2618315 103.9812411 114.2290066
  40.1162896 104.2952714 115.1214348  39.7843518 104.5997312 113.6760965
  42.1214698 100.9714959 114.2770956  42.1076267 100.0756053 113.9403254
  42.8387126 100.9785623 114.9109242  43.9740828 101.4052299 116.3224083
  43.7158606 102.3269370 116.3208414  43.4425869 101.0082734 117.0124547
  41.5251594  99.8529340 109.5458526  41.6467505  98.9245986 109.7449413
  41.2353636  99.8668025 108.6336841  44.3942784  97.5384250 112.6825246
  44.4164481  97.6023583 111.7277225  44.8110843  96.6988759 112.8765752
  49.9062190 113.8269851 106.2011067  50.6013094 114.4476544 106.4198381
  50.2485340 112.9765202 106.4763445  51.8053613 111.2769557 107.7298398
  52.3304937 111.6156829 107.0047718  51.7175965 110.3416572 107.5461532
  40.4981653 111.4383472 107.6374413  40.6469773 112.1218937 106.9841086
  41.3048096 111.4188562 108.1523869  38.2534286 107.4648650 108.6435482
  38.0080328 106.5610980 108.8415692  38.4230200 107.4665800 107.7014960
  37.5229933 103.1977007 106.1421643  36.8299178 103.2721362 105.4861679
  37.2781685 102.4337351 106.6643160  46.1943590  94.7572609 113.5461134
  46.4745343  94.0895798 114.1721561  46.9794197  94.9501704 113.0335798
  43.9977058 113.9331603 105.1086160  43.4251025 114.5521790 104.6556632
  44.5709852 114.4830964 105.6426082  47.2174318 114.2168753 106.2394743
  48.1504991 114.1514314 106.4427618  47.1297531 115.0525020 105.7809275
  49.8462335 113.5334623 103.1998690  49.7675966 113.1994487 104.0934448
  50.6672001 114.0256391 103.1990163  44.3823857 105.2692415 102.4502213
  45.3282961 105.1398624 102.5190631  44.0038102 104.5307077 102.9271641
  50.3545741  96.9348421 112.4129105  50.1570562  96.6263510 113.2972437
  50.9645447  97.6610060 112.5427035  42.5666774 103.1942392 102.3857098
  41.6598229 102.8975505 102.4619812  42.8442755 102.8972210 101.5191384
  44.1828840  97.7379282 108.5401339  43.3729568  97.3926366 108.9156585
  44.8713256  97.4286825 109.1288951  46.1119388  96.8157328 110.1625636
  46.6650426  97.2352782 110.8215659  46.3489474  95.8893076 110.2048592
  41.3365558 100.0529327 102.5269077  42.1984722 100.3784225 102.7864895
  41.5215903  99.2660823 102.0142143  49.4898195  98.9257853 109.6704300
  48.9096864  99.5842658 109.2882353  49.2234128  98.1035198 109.2591718
  47.9401761  98.3262911 111.8725621  48.4401540  98.4379446 111.0639939
  48.5837369  98.0223964 112.5126429  48.2723073 101.0857944 108.7260649
  47.3848928 101.3707594 108.5080843  48.6877062 100.9251707 107.8787925
  51.6237609 101.1104465 112.4414988  52.3997999 101.6000917 112.7139605
  50.8985743 101.5362519 112.8986857  47.4166286 110.8502619 102.8208669
  48.1202137 111.0552621 103.4366324  46.6928935 111.4179380 103.0857752
  48.2464097 106.6012480 108.9410939  48.1899298 107.0581031 108.1018571
  48.7992439 105.8403164 108.7633781  52.0568903 102.3902212 109.7661058
  51.8005837 101.9898847 110.5969266  51.4321771 103.1046006 109.6411197
  49.3252984 111.2885148 104.8707129  50.1598588 110.8566346 104.6884603
  49.1637327 111.1167161 105.7984023  48.9798876 107.7917261 106.2363468
  48.9247680 107.6261532 105.2951912  48.3544931 108.4993294 106.3925658
  42.2895001  97.2925370 105.8148786  42.2773671  98.2367210 105.9717057
  43.1818423  97.1095515 105.5208247  46.1047121  93.8868147 110.0694723
  45.3379517  93.3326633 110.2151405  46.5157826  93.9590015 110.9308875
  50.6605219 117.5869922 102.5839988  49.7834686 117.4658723 102.2202235
  51.1362972 116.7956001 102.3318877  53.4060528 118.5234309 102.3857098
  52.4991984 118.2267422 102.4619812  53.6836509 118.2264128 101.5191384
  52.1759313 115.3821245 102.5269077  53.0378477 115.7076143 102.7864895
  52.3609657 114.5952741 102.0142143  53.1288756 112.6217288 105.8148786
  53.1167426 113.5659128 105.9717057  54.0212178 112.4387433 105.5208247
   2.5830432  31.9378819  91.6516550   1.9092131  32.2410516  92.2601508
   2.9696254  32.7407900  91.3022007   6.5487173  29.5164303  92.9256373
   7.2438078  30.1370996  93.1443688   6.8910323  28.6659654  93.2008751
   3.8599301  29.9063205  92.9640049   4.7929974  29.8408766  93.1672925
   3.7722514  30.7419472  92.5054582   6.4887318  29.2229075  89.9243997
   6.4100949  28.8888939  90.8179755   7.3096985  29.7150843  89.9235469
   4.0591270  26.5397070  89.5453975   4.7627120  26.7447073  90.1611631
   3.3353918  27.1073832  89.8103059  14.5962242  37.4949251 101.6907612
  15.2340652  37.3755998 100.9870952  14.4783085  38.4430095 101.7495564
   7.2638764  39.3012155  97.6166028   6.7003629  39.2102092  96.8482315
   7.1491159  38.4812060  98.0968520  12.8438323  42.9683123  92.9280493
  12.1926303  43.5537203  92.5414506  13.6382686  43.4989318  92.9875530
   6.7693950  40.0572260  93.3267627   7.5424826  39.5101247  93.1880503
   7.1219349  40.9216509  93.5382088   9.1060228  36.2164926  90.9586077
   9.3585749  35.6946447  90.1969540   8.1684787  36.0531072  91.0612760
  14.1503511  35.2200705  98.7660820  14.9366600  34.8020128  98.4151237
  14.4142215  36.1246797  98.9342468  14.3213588  40.6573555  93.4649477
  13.6859421  40.7308181  94.1770381  13.9910994  41.2467154  92.7868556
  19.5511938  35.1575938  99.6693799  20.2837110  34.5875155  99.9031628
  18.7951294  34.7697538 100.1100304   8.8256517  38.1193032  93.1610452
   8.7092775  37.4437936  93.8291536   8.9358776  37.6325406  92.3442605
  11.1688058  37.5803179  96.8657141  10.8046265  37.0533800  97.5770062
  12.0255173  37.1901648  96.6923626  10.8093545  32.6093079  91.8618489
  10.9767947  33.4773315  92.2288961  10.6190714  32.7720361  90.9379779
  10.7882765  35.0650736  92.8465156  10.6682391  35.5107787  93.6850637
  10.0935354  35.4136054  92.2878694   8.5489658  47.8354378  96.4955288
   8.4713687  48.7862203  96.5743768   7.9451301  47.4900251  97.1530214
  16.4867832  35.5372210  93.6745490  17.3985688  35.7699596  93.4993188
  15.9777479  36.1209254  93.1120569  15.0937414  40.5198028 101.0659072
  14.4646276  40.6843742 100.3635140  14.7063076  40.9339638 101.8370036
  18.9726646  41.4552466  98.4203436  18.2877684  41.8351367  97.8700469
  19.0570495  42.0647793  99.1535383  10.6465376  40.2572436  98.3309157
  11.1103721  40.5360139  97.5413779  10.3822174  39.3555881  98.1482248
   9.5834262  36.3795589  95.1398722  10.2858305  36.8316632  95.6072648
   9.2514890  35.7379407  95.7678615  17.3423405  41.9784380 103.1921136
  18.1640849  41.5764568 102.9103818  17.3385808  41.8752615 104.1437252
  25.4329398  38.3223129  99.5406108  24.6793107  37.7530527  99.3850112
  25.5676940  38.2885793 100.4876743  10.8228026  43.1936531  95.2160827
  10.6873701  44.0388067  95.6445675  11.3637839  43.3955809  94.4526761
   4.2757424  40.7111969  95.7888752   4.7881944  41.5055219  95.9394317
   4.9280137  40.0138260  95.7222354   6.0852309  43.8277726  97.8711506
   6.2618937  44.7495690  97.6832489   6.8809142  43.5136145  98.3005885
   2.2406341  39.0400624  96.5648323   3.0781563  39.4497632  96.3482031
   2.4184608  38.1000066  96.5348517  14.1370773  36.7075704  92.2532156
  13.6217396  37.4780309  92.4920543  13.8648081  36.0340840  92.8765217
  19.1105047  39.4608059  94.1885329  18.3334490  39.1219218  93.7440491
  19.7896528  39.4660682  93.5140294  13.9257076  34.5802796  94.0791937
  13.6207211  34.8948945  94.9302080  14.8787518  34.6584216  94.1219270
  12.3703508  40.7393020  95.7284891  11.8424869  40.0045779  95.4158128
  11.8691010  41.5167696  95.4824859  17.3496354  38.9342040 100.8451937
  16.6920028  39.6241301 100.9332066  18.1536753  39.3238472 101.1885924
  16.1601813  37.2886413  98.8955879  16.6733694  37.9216405  99.3977589
  16.8103036  36.6887608  98.5299239   7.4291822  33.4317147  92.1087388
   6.5929135  33.7691833  92.4296663   7.2896592  33.2966127  91.1714525
  10.5156108  38.5573230  88.7319864   9.6083170  38.3262483  88.9311013
  11.0127140  37.7610849  88.9193846  13.4224187  47.2670737  91.6516550
  12.7485886  47.5702434  92.2601508  13.8090009  48.0699817  91.3022007
  13.4217691  36.1627284  96.2716900  14.1689510  36.6748681  95.9624022
  13.6909281  35.8411337  97.1321293  11.6944341  38.6585825  93.2543854
  10.7855561  38.3744858  93.3516324  11.7239425  39.0784903  92.3947161
  16.9263609  42.2692414  97.0235022  16.4725936  41.4283324  97.0800212
  16.2957575  42.9053813  97.3609802  15.8696528  33.1984400  98.2535689
  15.1319285  32.6861786  98.5845932  16.1223302  32.7584782  97.4418966
  15.3696548  44.1068911  97.9584840  15.6619522  44.6673968  97.2397205
  15.8795169  44.3997472  98.7137999  11.3920429  40.1994568  90.5931933
  10.9539859  39.4830427  90.1337570  12.1330870  40.4270683  90.0317024
   8.1821595  34.8891505  97.1144028   7.3689461  35.1885676  97.5209221
   8.6780589  34.4947194  97.8318511  10.3330173  44.8849262  99.0478293
  10.2906352  45.1110108  98.1186825  11.2492872  44.6512637  99.1964094
  19.5093544  38.4751765  96.6508251  19.3711443  38.6653361  95.7229441
  19.1529763  39.2371148  97.1076302  19.5362924  40.5428292 101.6619523
  19.9699430  40.4503582 102.5102577  20.2494504  40.5185793 101.0239539
   8.4495974  41.7612291  98.8440256   9.2436572  41.2662611  98.6422831
   7.7387666  41.2330154  98.4807961  13.2690818  44.1430387 103.1952623
  13.3227841  44.7121323 103.9630339  12.4005600  44.3132272 102.8306661
   4.7578737  35.9055373  94.9200008   3.8276326  35.8439828  95.1369971
   4.8536209  35.3831326  94.1236650  20.3978473  40.5851993 104.1952408
  20.5914363  41.4897804 104.4411683  20.2979091  40.1259412 105.0290993
  11.6215402  47.4350409  93.8663629  11.7967158  46.9638453  94.6809252
  10.9348190  48.0616176  94.0944890  12.5772465  41.7122916  99.9126931
  12.2422298  41.6723686 100.8084581  12.0776411  41.0467632  99.4397341
  15.5131657  39.0578950  90.1863990  14.8960827  38.3325778  90.0897043
  15.0448145  39.8188310  89.8431065   6.1876487  50.5839772 100.6403490
   6.4273085  51.2158296 101.3182508   5.3445684  50.2327812 100.9268849
   7.3030203  33.2764374  89.3085295   6.4259669  33.1553175  88.9447541
   7.7787956  32.4850453  89.0564183  10.7004349  46.3918895 103.0444994
  10.6274521  47.1973866 103.5564298  10.2581742  46.5910860 102.2193015
  10.4894129  45.6290665  96.5547815   9.7061651  46.1712345  96.6486040
  11.1886874  46.1464644  96.9542056  21.6520536  37.1425660 100.8400312
  21.6410412  38.0250375 100.4694245  20.7837916  36.7897211 100.6454849
  13.1603033  46.2905729 105.2003152  13.8731005  46.9253194 105.1279054
  12.6693061  46.3869595 104.3843154  14.8820560  40.1956981  96.7720444
  13.9476838  40.3158444  96.6025148  15.0597228  39.2929448  96.5080454
  18.2693111  36.0374301  97.3070478  18.7353563  36.8702292  97.2330781
  18.7200611  35.5719282  98.0115737  16.3369342  42.3818122  94.3056630
  16.6129186  42.2674717  95.2150504  15.4673841  41.9835607  94.2668803
  12.9723406  46.6304473  97.9489444  13.1545801  45.8126129  98.4117196
  13.7956392  46.8472165  97.5114334  13.3065571  45.5572658  95.2104492
  13.8353338  45.0465113  94.5974654  13.5693791  45.2415188  96.0750025
   6.6621319  46.6087775  97.9702268   5.9931695  47.0933902  97.4866308
   6.5234189  46.8556995  98.8845647  10.8026588  48.6431518 104.5684926
  11.3544896  48.8063140 105.3334012  11.1432781  49.2335956 103.8964951
   2.0308897  34.8706230  94.7498200   2.3262338  33.9616908  94.6965254
   1.1296932  34.8493969  94.4279203  13.9394975  46.5913494 101.5548609
  13.8146115  45.7903233 101.0459554  14.5974066  47.0859687 101.0662579
  16.0029884  44.3922514 103.1828159  15.0560219  44.2727865 103.1106485
  16.3512657  43.5045012 103.2654420  13.0076317  44.1875230  99.3832511
  12.8601279  43.2591937  99.5640081  13.8329810  44.2095321  98.8989586
   6.8738561  32.8393297  95.2413003   7.2134634  33.3679218  94.5191611
   7.3210682  33.1773703  96.0171570  16.6110439  45.0103789 100.4697384
  17.5356986  44.8046650 100.3321835  16.4425742  44.7620190 101.3786725
   8.8606708  31.3367919  93.4406296   9.5815071  31.7149171  92.9370013
   8.2372013  32.0556795  93.5441274  13.0037831  32.0413068  94.3764628
  13.2201446  32.9237705  94.0753456  12.5231898  31.6499281  93.6470270
  16.4005755  45.5289456  95.8259475  16.5742633  44.9635879  95.0733328
  16.8934646  46.3290351  95.6438965  22.2545146  38.2925879  97.4449775
  22.6976292  37.5433204  97.0468898  21.3771656  38.2836015  97.0623507
  17.3880928  44.8456221  92.9256373  18.0831832  45.4662913  93.1443688
  17.7304078  43.9951572  93.2008751  19.2872351  42.2955926  94.4543704
  19.8123675  42.6343199  93.7293024  19.1994703  41.3602941  94.2706839
  10.9713011  48.3627909  98.8138957  10.5318002  47.8704288  99.5071814
  11.7221128  47.8200877  98.5731033   3.4505350  44.5539450  98.8163585
   4.2763370  44.2543222  98.4362229   3.0999402  43.7847073  99.2653374
   8.4186884  43.9065918 100.8861259   7.7966893  43.2436623 100.5863487
   9.0891750  43.9327050 100.2034907   7.9800390  42.4569842  94.3619720
   8.1288511  43.1405306  93.7086392   8.7866834  42.4374932  94.8769175
  21.7978011  39.7631117  99.8372222  22.6324902  40.2020921 100.0009783
  21.9337140  39.2869771  99.0180468   5.7353023  38.4835019  95.3680788
   5.4899065  37.5797349  95.5660999   5.9048938  38.4852170  94.4260266
   5.0048671  34.2163377  92.8666950   4.3117916  34.2907732  92.2106986
   4.7600423  33.4523721  93.3888467  11.4795796  44.9517972  91.8331467
  10.9069763  45.5708159  91.3801939  12.0528590  45.5017334  92.3671389
  14.6993056  45.2355122  92.9640049  15.6323729  45.1700684  93.1672925
  14.6116269  46.0711389  92.5054582  17.3281072  44.5520993  89.9243997
  17.2494704  44.2180856  90.8179755  18.1490739  45.0442761  89.9235469
  20.0259264  37.4182732 103.1320315  19.9935584  36.4798733 103.3179999
  20.6359887  37.4966769 102.3986140  11.8642594  36.2878785  89.1747519
  12.8101699  36.1584993  89.2435938  11.4856839  35.5493447  89.6516948
  25.8435813  38.4798739 102.2726352  26.5739202  38.2184027 102.8334056
  25.2342759  37.7427461 102.3128420  23.9251111  36.6206601 102.8700803
  23.1984274  36.4862566 102.2617295  23.5098397  36.9283430 103.6757521
  10.0485512  34.2128761  89.1102405   9.1416967  33.9161874  89.1865118
  10.3261493  33.9158579  88.2436691   8.8184296  31.0715697  89.2514384
   9.6803460  31.3970595  89.5110201   9.0034640  30.2847192  88.7387450
  16.9716933  29.9444223  96.3949607  16.3915602  30.6029027  96.0127659
  16.7052865  29.1221568  95.9837024  15.7541811  32.1044313  95.4505955
  14.8667666  32.3893964  95.2326150  16.1695800  31.9438077  94.6033232
  19.1056347  32.1290834  99.1660294  19.8816737  32.6187287  99.4384911
  18.3804481  32.5548889  99.6232164  21.5428905  32.8418454 100.2234235
  22.1373396  32.6014190  99.5127543  21.6155489  32.1225584 100.8507771
   3.7626061  46.6852065 100.5377400   3.6280529  45.9252465  99.9715398
   3.3458123  47.4092964 100.0706189  14.8985024  41.8688988  89.5453975
  15.6020874  42.0738991  90.1611631  14.1747673  42.4365750  89.8103059
  15.7282834  37.6198849  95.6656245  15.6718036  38.0767401  94.8263878
  16.2811177  36.8589534  95.4879088  19.5387640  33.4088581  96.4906365
  19.2824575  33.0085217  97.3214573  18.9140508  34.1232375  96.3656504
  23.8499978  36.1484654  98.9977656  23.2899536  36.2177844  99.7709218
  23.2443482  35.9725639  98.2777152   6.9195187  47.5821382 100.7495843
   6.8027571  48.5266814 100.6474533   6.0987633  47.2794943 101.1381642
  16.8071722  42.3071517  91.5952435  17.6417326  41.8752716  91.4129910
  16.6456065  42.1353531  92.5229330  16.4617614  38.8103631  92.9608775
  16.4066418  38.6447902  92.0197219  15.8363669  39.5179664  93.1170964
   9.7713739  28.3111740  92.5394093   9.7592409  29.2553580  92.6962364
  10.6637161  28.1281885  92.2453554   7.9449701  48.2349643 103.9651771
   8.8476948  48.2673254 104.2818266   7.7187071  47.3050094 103.9798107
   9.7003303  46.9880630 100.6261850   8.7498934  46.9882492 100.5126222
  10.0035789  46.2413365 100.1097884  25.4355997  52.8241168 101.6907612
  26.0734407  52.7047916 100.9870952  25.3176840  53.7722012 101.7495564
  22.2445703  52.7768597 101.6269137  21.9064214  52.6609661 100.7389672
  23.1135471  52.3759762 101.6070143  18.1032519  54.6304073  97.6166028
  17.5397384  54.5394010  96.8482315  17.9884914  53.8103977  98.0968520
  22.7265486  53.9303448 107.5855342  22.7154127  53.5356247 106.7135846
  22.8886125  53.1969521 108.1789114  15.6496951  56.1255265 100.4550248
  16.4418243  55.7846089 100.0396547  15.8893601  56.2350240 101.3752401
  23.6832077  58.2975041  92.9280493  23.0320057  58.8829121  92.5414506
  24.4776440  58.8281236  92.9875530  17.6087705  55.3864178  93.3267627
  18.3818581  54.8393165  93.1880503  17.9613103  56.2508427  93.5382088
  19.4472747  56.7140560 106.5334526  19.1562613  57.6186191 106.4181192
  20.0829731  56.7557088 107.2478596  20.3728954  54.0917409 103.1235886
  20.9692526  53.8673431 102.4092849  20.4303925  53.3502154 103.7261334
  19.9453982  51.5456844  90.9586077  20.1979503  51.0238365  90.1969540
  19.0078541  51.3822989  91.0612760  24.9897265  50.5492622  98.7660820
  25.7760354  50.1312045  98.4151237  25.2535970  51.4538714  98.9342468
  25.1607343  55.9865473  93.4649477  24.5253176  56.0600099  94.1770381
  24.8304749  56.5759071  92.7868556  30.3905692  50.4867855  99.6693799
  31.1230864  49.9167072  99.9031628  29.6345048  50.0989456 100.1100304
  19.6650271  53.4484950  93.1610452  19.5486529  52.7729853  93.8291536
  19.7752531  52.9617324  92.3442605  22.0081812  52.9095097  96.8657141
  21.6440019  52.3825718  97.5770062  22.8648928  52.5193566  96.6923626
  27.9131113  44.1989430 104.1288407  27.5814437  45.0684841 103.9049622
  27.3176726  43.8825714 104.8082438  21.6487299  47.9384997  91.8618489
  21.8161701  48.8065233  92.2288961  21.4584468  48.1012278  90.9379779
  24.4062632  56.4001976 103.5284320  24.1063355  57.3027014 103.4200127
  24.0613692  56.1334159 104.3805473  17.8575114  52.8515772  99.5621024
  16.9325610  52.7191987  99.7698716  18.1059527  53.6309992 100.0590967
  27.8059776  48.9184516 101.2081757  26.8976653  48.8499924 100.9140518
  27.7547372  49.3956461 102.0363583  21.6276520  50.3942654  92.8465156
  21.5076145  50.8399705  93.6850637  20.9329108  50.7427972  92.2878694
  15.2183925  52.4949046 100.3964813  15.3476306  52.7483525 101.3104225
  14.5381376  53.0876754 100.0769468  19.3883412  63.1646296  96.4955288
  19.3107442  64.1154121  96.5743768  18.7845056  62.8192168  97.1530214
  21.8800642  50.3374161 109.1516654  21.1033976  50.8968081 109.1419519
  22.5191205  50.8230944 109.6731525  29.6721422  47.1200954 102.9859631
  29.0295803  47.4133487 102.3399426  29.1676351  47.0053874 103.7912828
  27.3261586  50.8664127  93.6745490  28.2379442  51.0991514  93.4993188
  26.8171233  51.4501172  93.1120569  20.1347014  53.1459615 108.7134621
  20.8761698  53.6844659 108.4369445  19.4284000  53.7725903 108.8706173
  25.6102354  55.2888755 107.3106783  26.0185710  54.8471166 106.5661415
  24.8879615  54.7141383 107.5640976  21.9633424  50.2261362 104.6840340
  22.8094619  50.6500775 104.8274989  21.9032061  49.5694986 105.3778903
  25.9331168  55.8489946 101.0659072  25.3040031  56.0135660 100.3635140
  25.5456830  56.2631555 101.8370036  29.8120400  56.7844384  98.4203436
  29.1271438  57.1643285  97.8700469  29.8964250  57.3939710  99.1535383
  25.1132869  47.8865730 106.3421514  24.8693801  48.6407791 105.8055789
  25.3892800  48.2651078 107.1768761  27.0671332  54.4304343 105.0198779
  27.2788227  55.0736103 104.3433160  27.0201080  53.5966659 104.5520709
  24.6697561  47.0422163 101.9235351  23.8082040  47.3403417 102.2152089
  24.6959995  47.2592562 100.9916384  21.4859130  55.5864354  98.3309157
  21.9497476  55.8652057  97.5413779  21.2215928  54.6847798  98.1482248
  18.3783211  55.1335835 101.2688920  18.9484568  55.5623104 100.6306405
  18.9691323  54.8518420 101.9673106  20.4228016  51.7087506  95.1398722
  21.1252060  52.1608550  95.6072648  20.0908645  51.0671325  95.7678615
  18.8708378  50.2999263 109.5149931  18.2407038  50.9815544 109.7485328
  18.7644466  50.1882344 108.5703070  14.1653350  49.9671059 100.4415856
  13.3752404  50.2228587  99.9655966  14.6564598  50.7819397 100.5467896
  28.1817160  57.3076298 103.1921136  29.0034604  56.9056485 102.9103818
  28.1779563  57.2044532 104.1437252  16.1168096  50.3315638  97.3999332
  15.3199259  50.4434332  97.9182828  15.8893688  50.6702290  96.5340223
  21.9473763  56.8560341 105.3481847  22.0118196  57.3180749 106.1840019
  21.2384687  56.2257706 105.4764157  12.4491053  50.2201549 102.8730846
  12.6999092  51.1048559 103.1388422  12.9850602  50.0406151 102.1005938
  36.2723153  53.6515047  99.5406108  35.5186861  53.0822445  99.3850112
  36.4070694  53.6177711 100.4876743  21.6621781  58.5228449  95.2160827
  21.5267456  59.3679985  95.6445675  22.2031593  58.7247727  94.4526761
  15.1151178  56.0403887  95.7888752  15.6275699  56.8347137  95.9394317
  15.7673891  55.3430177  95.7222354  16.9246063  59.1569643  97.8711506
  17.1012691  60.0787608  97.6832489  17.7202897  58.8428062  98.3005885
  21.0657082  46.0177908 109.4695439  21.8066795  46.6185061 109.3899902
  21.2975004  45.2755546 108.9113482  16.2098420  51.2034275 107.7473669
  16.0951935  50.3019532 108.0480768  15.3542937  51.4497972 107.3958485
  23.2890257  59.1452015 109.3461169  22.8454111  58.3588394 109.0282074
  23.9507471  59.3331166 108.6805060  18.0477378  60.6747817 103.8721848
  18.5984804  60.5464880 103.0998842  17.2088854  60.9742706 103.5216741
  25.3871495  59.4254815 107.3742571  25.3689971  60.2463696 106.8822840
  26.3091415  59.3008891 107.5992712  21.8444550  56.9398945 108.2166079
  22.3772886  56.1787233 107.9865387  21.3158631  56.6472597 108.9590233
  25.0114244  42.0459011 103.7459721  24.6678514  42.9360652 103.6698831
  25.3793207  41.8560668 102.8829306  13.0800095  54.3692541  96.5648323
  13.9175317  54.7789550  96.3482031  13.2578363  53.4291983  96.5348517
  24.9764527  52.0367622  92.2532156  24.4611151  52.8072226  92.4920543
  24.7041836  51.3632758  92.8765217  22.5611638  46.8817323  97.3117394
  21.7053235  46.4924173  97.1323033  22.9738590  46.9609283  96.4517180
  24.0910785  44.4163666 101.7108954  23.5875580  44.3793801 100.8976759
  24.3841392  45.3256409 101.7705611  20.3353671  44.5002396 100.7175136
  21.2006668  44.3045204 100.3581025  20.4031180  44.2712747 101.6444492
  29.9498801  54.7899977  94.1885329  29.1728244  54.4511136  93.7440491
  30.6290282  54.7952600  93.5140294  24.7650830  49.9094714  94.0791937
  24.4600966  50.2240863  94.9302080  25.7181272  49.9876134  94.1219270
  23.2097262  56.0684937  95.7284891  22.6818624  55.3337697  95.4158128
  22.7084765  56.8459614  95.4824859  28.1890108  54.2633958 100.8451937
  27.5313783  54.9533219 100.9332066  28.9930507  54.6530390 101.1885924
  17.9415990  46.7304604  98.0891503  18.5159742  46.5079785  97.3564695
  18.5286972  46.7993298  98.8420104  26.9995567  52.6178330  98.8955879
  27.5127449  53.2508322  99.3977589  27.6496791  52.0179526  98.5299239
  18.2685577  48.7609065  92.1087388  17.4322889  49.0983751  92.4296663
  18.1290347  48.6258044  91.1714525  20.2438658  43.6045852  96.8166572
  19.5903070  43.2894870  96.1923187  20.2019132  42.9821593  97.5426395
  21.3549862  53.8865148  88.7319864  20.4476924  53.6554401  88.9311013
  21.8520894  53.0902767  88.9193846  24.2617941  62.5962655  91.6516550
  23.5879640  62.8994351  92.2601508  24.6483763  63.3991735  91.3022007
  23.4776398  50.0927786 101.1414220  22.5598959  50.3142733 100.9835908
  23.8936542  50.1674096 100.2825927  24.2611446  51.4919202  96.2716900
  25.0083265  52.0040599  95.9624022  24.5303035  51.1703254  97.1321293
  22.5338096  53.9877742  93.2543854  21.6249315  53.7036775  93.3516324
  22.5633180  54.4076821  92.3947161  27.7657363  57.5984332  97.0235022
  27.3119690  56.7575242  97.0800212  27.1351330  58.2345730  97.3609802
  26.7090283  48.5276318  98.2535689  25.9713040  48.0153704  98.5845932
  26.9617056  48.0876700  97.4418966  26.2090302  59.4360829  97.9584840
  26.5013277  59.9965886  97.2397205  26.7188923  59.7289390  98.7137999
  26.8101910  41.3052570  98.8477458  27.1160787  40.4449933  98.5603374
  27.5354515  41.8970190  98.6476452  13.1026266  51.7083257  97.2359056
  12.9050666  51.1152617  96.5110123  12.5472930  51.4035467  97.9534995
  21.0822990  51.6006363  99.3553649  21.1371600  50.6480199  99.2796126
  20.2714192  51.7565802  99.8394948  22.2314184  55.5286486  90.5931933
  21.7933614  54.8122345  90.1337570  22.9724624  55.7562601  90.0317024
  19.0215350  50.2183423  97.1144028  18.2083215  50.5177593  97.5209221
  19.5174344  49.8239112  97.8318511  21.1723928  60.2141180  99.0478293
  21.1300106  60.4402026  98.1186825  22.0886627  59.9804554  99.1964094
  24.6189561  50.6825247 105.9458922  24.9738949  50.9096720 106.8053388
  25.2661693  51.0143624 105.3236178  30.3487298  53.8043683  96.6508251
  30.2105197  53.9945279  95.7229441  29.9923517  54.5663066  97.1076302
  18.5129425  47.7901778 102.7305263  19.1528804  47.6490537 102.0328227
  17.6806955  47.5036292 102.3543865  30.3756678  55.8720210 101.6619523
  30.8093185  55.7795499 102.5102577  31.0888259  55.8477711 101.0239539
  19.2889728  57.0904209  98.8440256  20.0830327  56.5954529  98.6422831
  18.5781421  56.5622072  98.4807961  24.1084573  59.4722304 103.1952623
  24.1621595  60.0413241 103.9630339  23.2399354  59.6424189 102.8306661
  15.5972492  51.2347290  94.9200008  14.6670080  51.1731746  95.1369971
  15.6929964  50.7123243  94.1236650  15.5158041  47.7602103  97.5078250
  15.7764858  48.6747437  97.3987411  16.3375213  47.2926546  97.6574863
  16.9882966  49.1739860 104.6777075  17.6606020  48.9657223 104.0289724
  16.1612753  48.9761946 104.2382307  31.2372228  55.9143911 104.1952408
  31.4308118  56.8189721 104.4411683  31.1372846  55.4551330 105.0290993
  22.8908538  45.8001801 106.6942736  22.2436453  46.4991751 106.6007212
  23.6609554  46.2337945 107.0618984  26.2987336  56.0650654 109.7693289
  26.1472843  55.8361205 108.8523372  26.2892016  57.0221255 109.7824634
  23.0672673  53.6382566 104.7539555  23.9964733  53.7893726 104.5808523
  22.6463703  53.7266587 103.8988202  21.8661004  57.6633231 102.5238093
  21.7272090  57.2952015 103.3964031  21.0775601  58.1780870 102.3522051
  22.4609156  62.7642327  93.8663629  22.6360912  62.2930370  94.6809252
  21.7741944  63.3908093  94.0944890  23.4166220  57.0414833  99.9126931
  23.0816052  57.0015603 100.8084581  22.9170165  56.3759549  99.4397341
  17.3910464  52.4482463 105.4379512  17.2530261  51.7162702 106.0391051
  18.3015387  52.3591364 105.1563700  26.3525411  54.3870868  90.1863990
  25.7354582  53.6617696  90.0897043  25.8841900  55.1480228  89.8431065
  20.0192764  52.1602423 104.9263191  20.7292383  51.5195615 104.8849810
  19.9762072  52.4115318 105.8489372  28.0079543  59.0969776 107.8469771
  27.9492089  58.4128996 107.1800354  28.4099061  59.8388766 107.3950397
  18.7321698  49.1467641 106.7458831  18.1959055  48.6958379 107.3980427
  18.1438407  49.2813549 106.0029295  17.0270242  65.9131690 100.6403490
  17.2666840  66.5450214 101.3182508  16.1839438  65.5619730 100.9268849
  18.1423957  48.6056292  89.3085295  17.2653423  48.4845093  88.9447541
  18.6181710  47.8142370  89.0564183  28.0096950  57.0609360 106.0783750
  27.1223729  56.7235282 106.2010149  28.5795501  56.3292391 106.3152516
   9.6626097  53.3933452  99.4026802  10.3497137  53.0795182  98.8147817
   9.5074226  54.2974816  99.1294053  14.4660819  48.2823648 103.8311825
  14.3819008  47.6749318 103.0962235  13.6443526  48.7732667 103.8321322
  21.5398104  61.7210812 103.0444994  21.4668275  62.5265784 103.5564298
  21.0975497  61.9202778 102.2193015  21.3287883  60.9582582  96.5547815
  20.5455405  61.5004263  96.6486040  22.0280628  61.4756562  96.9542056
  24.6384533  46.7677212  99.1982020  25.1353233  46.0147174  98.8783091
  23.8671515  46.8041528  98.6325230  32.4914291  52.4717577 100.8400312
  32.4804167  53.3542293 100.4694245  31.6231670  52.1189128 100.6454849
  23.9996787  61.6197646 105.2003152  24.7124759  62.2545111 105.1279054
  23.5086816  61.7161512 104.3843154  25.7214314  55.5248899  96.7720444
  24.7870593  55.6450362  96.6025148  25.8990982  54.6221366  96.5080454
  21.2219502  48.9094595  98.9253705  20.8517290  48.3565635  99.6134611
  21.7178595  48.3052728  98.3728705  29.1086865  51.3666218  97.3070478
  29.5747318  52.1994210  97.2330781  29.5594366  50.9011200  98.0115737
  19.0508701  59.3692090 106.0208723  19.7518160  60.0028573 106.1738117
  18.5803816  59.7106821 105.2604362  27.1763096  57.7110040  94.3056630
  27.4522940  57.5966634  95.2150504  26.3067595  57.3127524  94.2668803
  27.0803528  43.7346805 101.3461379  26.1666608  43.9651032 101.5143586
  27.5096630  43.8185249 102.1975412  26.8509987  51.9236697 103.8461273
  26.1981437  52.1712605 103.1913726  27.2290366  51.1100835 103.5123751
  23.8117160  61.9596390  97.9489444  23.9939555  61.1418046  98.4117196
  24.6350146  62.1764083  97.5114334  24.1459326  60.8864576  95.2104492
  24.6747092  60.3757030  94.5974654  24.4087546  60.5707106  96.0750025
  22.8997560  52.6656508 110.3327310  22.2238197  52.5650638 111.0029686
  23.7225193  52.5095722 110.7963308  14.6476419  58.9028445 102.9539826
  15.2329855  58.1572133 103.0867730  14.4501257  59.2132402 103.8376490
  17.5015074  61.9379692  97.9702268  16.8325449  62.4225820  97.4866308
  17.3627944  62.1848913  98.8845647   9.2394073  51.4734045 101.6744269
   9.2778173  50.9397636 102.4681387   8.7334366  50.9469251 101.0555246
  21.6420342  63.9723436 104.5684926  22.1938651  64.1355057 105.3334012
  21.9826536  64.5627874 103.8964951  16.6184836  46.3198586 105.1706811
  16.6826162  47.1813417 104.7584209  16.5551956  45.7072587 104.4379170
  26.4931217  58.7984693 110.4233581  27.0371121  59.4114652 109.9288536
  25.9118062  59.3564272 110.9400594  12.8702651  50.1998147  94.7498200
  13.1656092  49.2908826  94.6965254  11.9690687  50.1785887  94.4279203
  24.7788730  61.9205411 101.5548609  24.6539869  61.1195151 101.0459554
  25.4367821  62.4151605 101.0662579  16.3996898  48.2754144 100.7325749
  15.6783484  48.8890112 100.5933222  17.1890154  48.8111909 100.6542395
  26.8423638  59.7214431 103.1828159  25.8953974  59.6019783 103.1106485
  27.1906411  58.8336929 103.2654420  19.2023212  45.6108570 107.0066401
  19.7257613  45.8570867 107.7692710  18.9835545  46.4428605 106.5869538
  14.5990493  47.8812245  94.8737525  14.2703199  47.0009624  94.6912631
  14.9529863  47.8259914  95.7613915  23.8470071  59.5167148  99.3832511
  23.6995034  58.5883855  99.5640081  24.6723565  59.5387238  98.8989586
  17.7132316  48.1685215  95.2413003  18.0528388  48.6971136  94.5191611
  18.1604436  48.5065621  96.0171570  27.4504193  60.3395706 100.4697384
  28.3750741  60.1338568 100.3321835  27.2819497  60.0912108 101.3786725
  20.4075757  46.5522265 104.6916071  20.0672577  45.7530079 105.0936751
  19.7014763  46.8523976 104.1192904  21.0592228  43.6371578 103.1443394
  21.8818298  43.1632056 103.0222284  21.3030292  44.4162062 103.6442080
  19.7000463  46.6659836  93.4406296  20.4208825  47.0441089  92.9370013
  19.0765767  47.3848713  93.5441274  23.8431586  47.3704985  94.3764628
  24.0595200  48.2529623  94.0753456  23.3625653  46.9791199  93.6470270
  18.5830807  50.3290699 100.9535373  18.4375388  50.6431002 101.8459654
  18.1056011  50.9475599 100.4006271  20.4427190  47.3193246 101.0016262
  20.4288759  46.4234340 100.6648560  21.1599618  47.3263910 101.6354548
  22.2953321  47.7530587 103.0469390  22.0371099  48.6747657 103.0453720
  21.7638361  47.3561021 103.7369854  27.2399510  60.8581374  95.8259475
  27.4136387  60.2927796  95.0733328  27.7328401  61.6582269  95.6438965
  13.0576469  52.8696043 103.8923034  12.5129937  53.6455851 104.0243308
  13.9355819  53.2166847 103.7342155  19.8464086  46.2007627  96.2703832
  19.9679997  45.2724273  96.4694720  19.5566128  46.2146313  95.3582148
  22.7155276  43.8862537  99.4070552  22.7376973  43.9501870  98.4522532
  23.1323335  43.0467046  99.6011058  33.0938901  53.6217797  97.4449775
  33.5370047  52.8725122  97.0468898  32.2165411  53.6127933  97.0623507
  28.2274682  60.1748138  92.9256373  28.9225587  60.7954831  93.1443688
  28.5697832  59.3243489  93.2008751  13.8442491  51.9965939 106.7853191
  13.1024227  52.1448575 107.3717821  13.5235235  52.2574205 105.9219940
  30.1266105  57.6247844  94.4543704  30.6517429  57.9635117  93.7293024
  30.0388458  56.6894859  94.2706839  21.7886154  61.5381917 106.5833581
  22.0973280  61.2931064 107.4556280  22.5861636  61.7428556 106.0952451
  21.8106766  63.6919827  98.8138957  21.3711756  63.1996206  99.5071814
  22.5614883  63.1492795  98.5731033  14.2899105  59.8831368  98.8163585
  15.1157125  59.5835140  98.4362229  13.9393157  59.1138990  99.2653374
  19.2580638  59.2357836 100.8861259  18.6360647  58.5728541 100.5863487
  19.9285505  59.2618968 100.2034907  12.4907710  57.8017694  99.7752519
  11.6539618  57.3739869  99.5936520  12.4631355  57.9950138 100.7123310
  29.8160011  58.2580747 109.7594902  29.0255555  58.2404886 109.2199402
  29.5793366  58.7969041 110.5143939  29.9357886  55.1073214 107.0727631
  29.9855891  54.9423221 108.0143153  29.8271810  54.2400473 106.6825511
  18.8194145  57.7861759  94.3619720  18.9682265  58.4697224  93.7086392
  19.6260588  57.7666850  94.8769175  27.2261649  51.0904142 108.3886937
  28.1271511  50.9510607 108.0970935  27.3009623  51.2558597 109.3285115
  21.5604454  48.4670997 107.2340124  20.6907763  48.7604563 106.9622712
  21.7963934  49.0511442 107.9547387  31.4376083  57.5270155 107.3169652
  31.1460891  57.8900136 108.1533113  30.8248214  56.8137164 107.1382984
  32.6371765  55.0923035  99.8372222  33.4718657  55.5312839 100.0009783
  32.7730894  54.6161688  99.0180468  29.6863271  52.6502770 105.7849710
  30.1617393  52.8430416 104.9768562  28.7628837  52.7061956 105.5393094
  16.5746778  53.8126937  95.3680788  16.3292820  52.9089267  95.5660999
  16.7442692  53.8144088  94.4260266  24.2643488  44.6850613 104.7505544
  24.7825432  45.4211640 104.4252033  23.9098621  44.9914607 105.5852303
  15.8442425  49.5455295  92.8666950  15.1511670  49.6199650  92.2106986
  15.5994177  48.7815638  93.3888467  24.5156082  41.1050896 100.2706441
  24.7957836  40.4374085 100.8966867  25.3006689  41.2979992  99.7581105
  22.3189550  60.2809890  91.8331467  21.7463518  60.9000077  91.3801939
  22.8922344  60.8309252  92.3671389  28.3864940  49.5268530 104.0178016
  29.3382363  49.6266628 104.0390240  28.2168391  48.7346799 104.5276100
  26.4079320  46.6124113 104.2037417  25.8129252  46.8929126 103.5083905
  26.1229016  47.1018014 104.9754158  25.5386810  60.5647040  92.9640049
  26.4717483  60.4992602  93.1672925  25.4510023  61.4003307  92.5054582
  28.1674827  59.8812910  89.9243997  28.0888458  59.5472774  90.8179755
  28.9884494  60.3734678  89.9235469  30.8653018  52.7474650 103.1320315
  30.8329338  51.8090650 103.3179999  31.4753642  52.8258686 102.3986140
  22.7036349  51.6170703  89.1747519  23.6495454  51.4876911  89.2435938
  22.3250594  50.8785365  89.6516948  31.0147507  49.5385693 103.1778599
  30.4986555  48.7544150 102.9908528  31.8987455  49.2104410 103.3425118
  28.6758233  43.2826709  99.1374411  28.4783055  42.9741797 100.0217743
  29.2857939  44.0088348  99.2672341  36.6829568  53.8090657 102.2726352
  37.4132956  53.5475945 102.8334056  36.0736513  53.0719378 102.3128420
  34.7644865  51.9498519 102.8700803  34.0378029  51.8154484 102.2617295
  34.3492152  52.2575348 103.6757521  22.5875041  55.6688449 110.6348176
  23.5078051  55.8467048 110.8288223  22.5524625  54.7244494 110.4827876
  20.8879266  49.5420679  89.1102405  19.9810721  49.2453792  89.1865118
  21.1655247  49.2450497  88.2436691  11.8057206  50.8627042  99.5601451
  11.4859991  50.0092351  99.2675825  11.2590635  51.0775621 100.3159418
  15.5837114  53.5789483 103.2770958  15.8023124  54.5106591 103.2958991
  15.9962888  53.2197458 104.0625761  22.5041332  44.0857569  95.2646646
  21.6942060  43.7404654  95.6401892  23.1925749  43.7765112  95.8534258
  24.4331880  43.1635616  96.8870943  24.9862919  43.5831069  97.5460966
  24.6701966  42.2371364  96.9293899  19.6578051  46.4007614  89.2514384
  20.5197215  46.7262513  89.5110201  19.8428395  45.6139110  88.7387450
  11.6745466  54.4829954 101.5294573  10.9808938  54.0683907 101.0164527
  12.4218457  54.5250490 100.9327992  27.8110687  45.2736141  96.3949607
  27.2309356  45.9320945  96.0127659  27.5446620  44.4513485  95.9837024
  26.2614254  44.6741198  98.5970927  26.7614032  44.7857733  97.7885246
  26.9049861  44.3702251  99.2371736  20.3196249  52.5819828 111.4838768
  19.8363331  53.3820188 111.6902657  20.4057188  52.5927773 110.5306212
  13.5882209  54.4148208  99.4060588  13.5652897  54.5135895  98.4542471
  13.8982845  55.2613359  99.7277754  16.2469587  56.4724363 103.5207202
  17.2012840  56.4408305 103.4537134  16.0482110  56.0114986 104.3357428
  16.8368969  55.0425479 106.0878000  17.6561858  55.5369557 106.1112837
  17.1105777  54.1257447 106.0595567  26.5935565  47.4336231  95.4505955
  25.7061420  47.7185882  95.2326150  27.0089554  47.2729994  94.6033232
  29.9450101  47.4582752  99.1660294  30.7210491  47.9479205  99.4384911
  29.2198236  47.8840806  99.6232164  32.3822660  48.1710371 100.2234235
  32.9767151  47.9306107  99.5127543  32.4549244  47.4517502 100.8507771
  14.6019816  62.0143982 100.5377400  14.4674284  61.2544383  99.9715398
  14.1851878  62.7384882 100.0706189  25.7378779  57.1980906  89.5453975
  26.4414629  57.4030908  90.1611631  25.0141427  57.7657668  89.8103059
  26.5676589  52.9490767  95.6656245  26.5111790  53.4059318  94.8263878
  27.1204931  52.1881452  95.4879088  30.3781395  48.7380499  96.4906365
  30.1218329  48.3377135  97.3214573  29.7534263  49.4524293  96.3656504
  34.6893733  51.4776572  98.9977656  34.1293291  51.5469761  99.7709218
  34.0837236  51.3017557  98.2777152  17.7588942  62.9113299 100.7495843
  17.6421326  63.8558732 100.6474533  16.9381388  62.6086861 101.1381642
  27.6465476  57.6363435  91.5952435  28.4811080  57.2044633  91.4129910
  27.4849819  57.4645449  92.5229330  27.3011368  54.1395548  92.9608775
  27.2460172  53.9739820  92.0197219  26.6757424  54.8471581  93.1170964
  12.0903883  49.3763613 106.7870197  12.7362747  48.8662567 107.2757422
  11.8821034  50.1132294 107.3613622  24.6157275  56.4444460 112.2862337
  25.4848435  56.6185112 111.9248972  24.1364027  57.2638877 112.1638067
  20.6107494  43.6403657  92.5394093  20.5986164  44.5845497  92.6962364
  21.5030916  43.4573803  92.2453554  18.7843456  63.5641561 103.9651771
  19.6870702  63.5965171 104.2818266  18.5580826  62.6342012 103.9798107
  20.5397058  62.3172548 100.6261850  19.5892689  62.3174409 100.5126222
  20.8429544  61.5705282 100.1097884  24.4259613  40.2346434  96.7940030
  23.6592009  39.6804921  96.9396712  24.8370318  40.3068303  97.6554181
  36.2749751  68.1533086 101.6907612  36.9128161  68.0339833 100.9870952
  36.1570594  69.1013930 101.7495564  33.0839457  68.1060514 101.6269137
  32.7457969  67.9901579 100.7389672  33.9529226  67.7051679 101.6070143
  28.9426273  69.9595991  97.6166028  28.3791138  69.8685928  96.8482315
  28.8278668  69.1395895  98.0968520  33.5659240  69.2595366 107.5855342
  33.5547881  68.8648164 106.7135846  33.7279880  68.5261439 108.1789114
  26.4890705  71.4547182 100.4550248  27.2811997  71.1138007 100.0396547
  26.7287355  71.5642157 101.3752401  34.5225832  73.6266958  92.9280493
  33.8713812  74.2121039  92.5414506  35.3170195  74.1573153  92.9875530
  28.4481459  70.7156095  93.3267627  29.2212335  70.1685083  93.1880503
  28.8006858  71.5800345  93.5382088  30.2866502  72.0432478 106.5334526
  29.9956368  72.9478109 106.4181192  30.9223486  72.0849005 107.2478596
  31.2122708  69.4209326 103.1235886  31.8086281  69.1965349 102.4092849
  31.2697680  68.6794072 103.7261334  30.7847737  66.8748762  90.9586077
  31.0373258  66.3530283  90.1969540  29.8472296  66.7114907  91.0612760
  35.8291020  65.8784540  98.7660820  36.6154109  65.4603963  98.4151237
  36.0929724  66.7830632  98.9342468  36.0001097  71.3157390  93.4649477
  35.3646930  71.3892017  94.1770381  35.6698503  71.9050989  92.7868556
  41.2299447  65.8159773  99.6693799  41.9624619  65.2458990  99.9031628
  40.4738802  65.4281374 100.1100304  30.5044026  68.7776868  93.1610452
  30.3880284  68.1021771  93.8291536  30.6146285  68.2909241  92.3442605
  32.8475567  68.2387015  96.8657141  32.4833774  67.7117636  97.5770062
  33.7042682  67.8485484  96.6923626  38.7524867  59.5281347 104.1288407
  38.4208192  60.3976758 103.9049622  38.1570481  59.2117631 104.8082438
  32.4881053  63.2676914  91.8618489  32.6555456  64.1357151  92.2288961
  32.2978223  63.4304196  90.9379779  35.2456387  71.7293893 103.5284320
  34.9457110  72.6318932 103.4200127  34.9007446  71.4626076 104.3805473
  28.6968868  68.1807690  99.5621024  27.7719365  68.0483904  99.7698716
  28.9453281  68.9601909 100.0590967  38.6453530  64.2476433 101.2081757
  37.7370408  64.1791842 100.9140518  38.5941126  64.7248378 102.0363583
  32.4670274  65.7234572  92.8465156  32.3469900  66.1691623  93.6850637
  31.7722863  66.0719890  92.2878694  26.0577679  67.8240964 100.3964813
  26.1870060  68.0775443 101.3104225  25.3775131  68.4168672 100.0769468
  30.2277166  78.4938214  96.4955288  30.1501196  79.4446039  96.5743768
  29.6238810  78.1484086  97.1530214  32.7194396  65.6666079 109.1516654
  31.9427730  66.2259999 109.1419519  33.3584959  66.1522862 109.6731525
  40.5115177  62.4492872 102.9859631  39.8689557  62.7425405 102.3399426
  40.0070105  62.3345792 103.7912828  38.1655341  66.1956045  93.6745490
  39.0773197  66.4283432  93.4993188  37.6564988  66.7793089  93.1120569
  30.9740769  68.4751532 108.7134621  31.7155453  69.0136576 108.4369445
  30.2677754  69.1017821 108.8706173  36.4496108  70.6180673 107.3106783
  36.8579464  70.1763083 106.5661415  35.7273370  70.0433300 107.5640976
  32.8027178  65.5553280 104.6840340  33.6488373  65.9792693 104.8274989
  32.7425816  64.8986904 105.3778903  36.7724923  71.1781863 101.0659072
  36.1433785  71.3427578 100.3635140  36.3850585  71.5923473 101.8370036
  40.6514155  72.1136301  98.4203436  39.9665193  72.4935203  97.8700469
  40.7358004  72.7231628  99.1535383  35.9526624  63.2157648 106.3421514
  35.7087555  63.9699708 105.8055789  36.2286554  63.5942996 107.1768761
  37.9065086  69.7596260 105.0198779  38.1181982  70.4028020 104.3433160
  37.8594835  68.9258577 104.5520709  35.5091315  62.3714081 101.9235351
  34.6475794  62.6695335 102.2152089  35.5353750  62.5884480 100.9916384
  32.3252885  70.9156272  98.3309157  32.7891230  71.1943975  97.5413779
  32.0609683  70.0139716  98.1482248  29.2176966  70.4627753 101.2688920
  29.7878323  70.8915021 100.6306405  29.8085078  70.1810338 101.9673106
  31.2621771  67.0379424  95.1398722  31.9645814  67.4900468  95.6072648
  30.9302399  66.3963243  95.7678615  29.7102132  65.6291181 109.5149931
  29.0800793  66.3107461 109.7485328  29.6038220  65.5174262 108.5703070
  25.0047105  65.2962977 100.4415856  24.2146159  65.5520505  99.9655966
  25.4958352  66.1111314 100.5467896  39.0210914  72.6368216 103.1921136
  39.8428358  72.2348403 102.9103818  39.0173317  72.5336450 104.1437252
  26.9561850  65.6607556  97.3999332  26.1593013  65.7726250  97.9182828
  26.7287442  65.9994208  96.5340223  32.7867518  72.1852259 105.3481847
  32.8511950  72.6472666 106.1840019  32.0778442  71.5549624 105.4764157
  23.2884808  65.5493467 102.8730846  23.5392846  66.4340477 103.1388422
  23.8244356  65.3698069 102.1005938  47.1116907  68.9806964  99.5406108
  46.3580616  68.4114362  99.3850112  47.2464449  68.9469629 100.4876743
  32.5015535  73.8520367  95.2160827  32.3661210  74.6971902  95.6445675
  33.0425348  74.0539644  94.4526761  28.9882875  59.9311946 111.8775183
  28.5949821  59.3778145 112.5522827  29.8049015  60.2422525 112.2681700
  25.9544933  71.3695805  95.7888752  26.4669453  72.1639055  95.9394317
  26.6067646  70.6722095  95.7222354  27.7639817  74.4861561  97.8711506
  27.9406446  75.4079526  97.6832489  28.5596651  74.1719980  98.3005885
  31.9050836  61.3469825 109.4695439  32.6460549  61.9476979 109.3899902
  32.1368759  60.6047463 108.9113482  27.0492174  66.5326193 107.7473669
  26.9345689  65.6311450 108.0480768  26.1936692  66.7789890 107.3958485
  34.1284012  74.4743933 109.3461169  33.6847866  73.6880312 109.0282074
  34.7901225  74.6623084 108.6805060  28.8871133  76.0039735 103.8721848
  29.4378558  75.8756798 103.0998842  28.0482609  76.3034624 103.5216741
  36.2265250  74.7546733 107.3742571  36.2083725  75.5755614 106.8822840
  37.1485170  74.6300808 107.5992712  32.6838304  72.2690862 108.2166079
  33.2166641  71.5079151 107.9865387  32.1552385  71.9764514 108.9590233
  35.8507999  57.3750928 103.7459721  35.5072268  58.2652570 103.6698831
  36.2186962  57.1852586 102.8829306  23.9193850  69.6984459  96.5648323
  24.7569072  70.1081467  96.3482031  24.0972117  68.7583901  96.5348517
  35.8158282  67.3659540  92.2532156  35.3004905  68.1364144  92.4920543
  35.5435590  66.6924676  92.8765217  33.4005393  62.2109240  97.3117394
  32.5446989  61.8216091  97.1323033  33.8132344  62.2901201  96.4517180
  34.9304539  59.7455584 101.7108954  34.4269335  59.7085719 100.8976759
  35.2235146  60.6548326 101.7705611  31.1747425  59.8294313 100.7175136
  32.0400422  59.6337122 100.3581025  31.2424934  59.6004665 101.6444492
  40.7892556  70.1191894  94.1885329  40.0121999  69.7803054  93.7440491
  41.4684037  70.1244517  93.5140294  35.6044585  65.2386632  94.0791937
  35.2994720  65.5532781  94.9302080  36.5575027  65.3168052  94.1219270
  34.0491017  71.3976855  95.7284891  33.5212378  70.6629615  95.4158128
  33.5478519  72.1751531  95.4824859  39.0283863  69.5925875 100.8451937
  38.3707537  70.2825137 100.9332066  39.8324262  69.9822307 101.1885924
  28.7809744  62.0596521  98.0891503  29.3553496  61.8371703  97.3564695
  29.3680727  62.1285216  98.8420104  37.8389322  67.9470248  98.8955879
  38.3521203  68.5800240  99.3977589  38.4890545  67.3471444  98.5299239
  29.1079331  64.0900982  92.1087388  28.2716644  64.4275669  92.4296663
  28.9684101  63.9549962  91.1714525  31.0832412  58.9337770  96.8166572
  30.4296824  58.6186787  96.1923187  31.0412886  58.3113511  97.5426395
  32.1943617  69.2157065  88.7319864  31.2870679  68.9846319  88.9311013
  32.6914649  68.4194684  88.9193846  35.1011696  77.9254572  91.6516550
  34.4273395  78.2286269  92.2601508  35.4877518  78.7283653  91.3022007
  34.3170152  65.4219704 101.1414220  33.3992714  65.6434651 100.9835908
  34.7330296  65.4966014 100.2825927  35.1005200  66.8211119  96.2716900
  35.8477019  67.3332517  95.9624022  35.3696790  66.4995172  97.1321293
  33.3731850  69.3169660  93.2543854  32.4643070  69.0328693  93.3516324
  33.4026934  69.7368739  92.3947161  38.6051118  72.9276250  97.0235022
  38.1513445  72.0867159  97.0800212  37.9745084  73.5637648  97.3609802
  37.5484037  63.8568236  98.2535689  36.8106794  63.3445622  98.5845932
  37.8010811  63.4168617  97.4418966  37.0484057  74.7652746  97.9584840
  37.3407031  75.3257803  97.2397205  37.5582678  75.0581307  98.7137999
  37.6495665  56.6344488  98.8477458  37.9554541  55.7741851  98.5603374
  38.3748269  57.2262108  98.6476452  23.9420021  67.0375174  97.2359056
  23.7444421  66.4444535  96.5110123  23.3866685  66.7327384  97.9534995
  31.9216744  66.9298281  99.3553649  31.9765354  65.9772117  99.2796126
  31.1107946  67.0857720  99.8394948  33.0707938  70.8578404  90.5931933
  32.6327368  70.1414263  90.1337570  33.8118379  71.0854519  90.0317024
  29.8609104  65.5475340  97.1144028  29.0476970  65.8469511  97.5209221
  30.3568098  65.1531029  97.8318511  32.0117682  75.5433097  99.0478293
  31.9693861  75.7693944  98.1186825  32.9280381  75.3096472  99.1964094
  35.4583316  66.0117165 105.9458922  35.8132704  66.2388638 106.8053388
  36.1055447  66.3435542 105.3236178  41.1881053  69.1335601  96.6508251
  41.0498951  69.3237197  95.7229441  40.8317272  69.8954984  97.1076302
  29.3523179  63.1193696 102.7305263  29.9922558  62.9782455 102.0328227
  28.5200710  62.8328209 102.3543865  41.2150433  71.2012128 101.6619523
  41.6486939  71.1087417 102.5102577  41.9282013  71.1769628 101.0239539
  30.1283483  72.4196126  98.8440256  30.9224081  71.9246447  98.6422831
  29.4175175  71.8913989  98.4807961  34.9478327  74.8014222 103.1952623
  35.0015350  75.3705158 103.9630339  34.0793109  74.9716107 102.8306661
  26.4366246  66.5639208  94.9200008  25.5063835  66.5023664  95.1369971
  26.5323718  66.0415161  94.1236650  26.3551795  63.0894021  97.5078250
  26.6158613  64.0039354  97.3987411  27.1768968  62.6218463  97.6574863
  27.8276721  64.5031778 104.6777075  28.4999774  64.2949140 104.0289724
  27.0006507  64.3053864 104.2382307  42.0765982  71.2435828 104.1952408
  42.2701872  72.1481639 104.4411683  41.9766600  70.7843248 105.0290993
  33.7302293  61.1293719 106.6942736  33.0830208  61.8283669 106.6007212
  34.5003308  61.5629863 107.0618984  37.1381091  71.3942571 109.7693289
  36.9866597  71.1653123 108.8523372  37.1285770  72.3513173 109.7824634
  33.9066427  68.9674484 104.7539555  34.8358487  69.1185644 104.5808523
  33.4857457  69.0558505 103.8988202  32.7054759  72.9925148 102.5238093
  32.5665845  72.6243933 103.3964031  31.9169355  73.5072788 102.3522051
  33.3002911  78.0934245  93.8663629  33.4754667  77.6222288  94.6809252
  32.6135699  78.7200011  94.0944890  34.2559974  72.3706751  99.9126931
  33.9209807  72.3307521 100.8084581  33.7563920  71.7051467  99.4397341
  28.2304218  67.7774381 105.4379512  28.0924016  67.0454620 106.0391051
  29.1409142  67.6883281 105.1563700  37.1919166  69.7162785  90.1863990
  36.5748336  68.9909614  90.0897043  36.7235654  70.4772146  89.8431065
  30.8586519  67.4894340 104.9263191  31.5686137  66.8487533 104.8849810
  30.8155827  67.7407235 105.8489372  38.8473297  74.4261694 107.8469771
  38.7885844  73.7420914 107.1800354  39.2492816  75.1680684 107.3950397
  29.5715453  64.4759558 106.7458831  29.0352810  64.0250297 107.3980427
  28.9832161  64.6105467 106.0029295  27.8663996  81.2423608 100.6403490
  28.1060594  81.8742132 101.3182508  27.0233193  80.8911648 100.9268849
  28.9817712  63.9348210  89.3085295  28.1047178  63.8137010  88.9447541
  29.4575465  63.1434288  89.0564183  38.8490705  72.3901278 106.0783750
  37.9617483  72.0527199 106.2010149  39.4189256  71.6584309 106.3152516
  20.5019852  68.7225369  99.4026802  21.1890892  68.4087099  98.8147817
  20.3467980  69.6266734  99.1294053  25.3054574  63.6115566 103.8311825
  25.2212763  63.0041236 103.0962235  24.4837280  64.1024584 103.8321322
  32.3791858  77.0502730 103.0444994  32.3062030  77.8557702 103.5564298
  31.9369251  77.2494696 102.2193015  32.1681638  76.2874500  96.5547815
  31.3849160  76.8296180  96.6486040  32.8674383  76.8048480  96.9542056
  35.4778288  62.0969130  99.1982020  35.9746987  61.3439092  98.8783091
  34.7065269  62.1333446  98.6325230  43.3308045  67.8009495 100.8400312
  43.3197921  68.6834210 100.4694245  42.4625425  67.4481046 100.6454849
  34.8390542  76.9489564 105.2003152  35.5518514  77.5837029 105.1279054
  34.3480570  77.0453430 104.3843154  36.5608068  70.8540817  96.7720444
  35.6264347  70.9742279  96.6025148  36.7384737  69.9513284  96.5080454
  32.0613257  64.2386513  98.9253705  31.6911044  63.6857553  99.6134611
  32.5572349  63.6344646  98.3728705  39.9480620  66.6958136  97.3070478
  40.4141072  67.5286128  97.2330781  40.3988120  66.2303118  98.0115737
  29.8902455  74.6984008 106.0208723  30.5911915  75.3320490 106.1738117
  29.4197570  75.0398739 105.2604362  38.0156851  73.0401957  94.3056630
  38.2916695  72.9258552  95.2150504  37.1461350  72.6419442  94.2668803
  37.9197283  59.0638723 101.3461379  37.0060362  59.2942950 101.5143586
  38.3490384  59.1477167 102.1975412  37.6903741  67.2528615 103.8461273
  37.0375191  67.5004522 103.1913726  38.0684121  66.4392753 103.5123751
  34.6510915  77.2888308  97.9489444  34.8333309  76.4709964  98.4117196
  35.4743901  77.5056000  97.5114334  34.9853080  76.2156493  95.2104492
  35.5140847  75.7048948  94.5974654  35.2481300  75.8999023  96.0750025
  33.7391314  67.9948426 110.3327310  33.0631951  67.8942555 111.0029686
  34.5618948  67.8387640 110.7963308  25.4870173  74.2320363 102.9539826
  26.0723610  73.4864050 103.0867730  25.2895012  74.5424319 103.8376490
  28.3408828  77.2671610  97.9702268  27.6719204  77.7517738  97.4866308
  28.2021698  77.5140830  98.8845647  20.0787828  66.8025963 101.6744269
  20.1171927  66.2689553 102.4681387  19.5728121  66.2761168 101.0555246
  32.4814097  79.3015353 104.5684926  33.0332405  79.4646975 105.3334012
  32.8220290  79.8919791 103.8964951  27.4578590  61.6490503 105.1706811
  27.5219917  62.5105334 104.7584209  27.3945710  61.0364505 104.4379170
  26.9330863  63.7213636 108.8179845  27.5602902  63.3390713 109.4317370
  26.0758782  63.5027838 109.1835538  37.3324971  74.1276611 110.4233581
  37.8764875  74.7406569 109.9288536  36.7511816  74.6856189 110.9400594
  23.7096405  65.5290065  94.7498200  24.0049847  64.6200743  94.6965254
  22.8084441  65.5077804  94.4279203  35.6182484  77.2497329 101.5548609
  35.4933624  76.4487069 101.0459554  36.2761575  77.7443522 101.0662579
  27.2390652  63.6046062 100.7325749  26.5177238  64.2182029 100.5933222
  28.0283908  64.1403826 100.6542395  37.6817393  75.0506349 103.1828159
  36.7347728  74.9311700 103.1106485  38.0300166  74.1628847 103.2654420
  30.0416966  60.9400488 107.0066401  30.5651368  61.1862785 107.7692710
  29.8229299  61.7720523 106.5869538  25.4384247  63.2104163  94.8737525
  25.1096953  62.3301542  94.6912631  25.7923618  63.1551831  95.7613915
  34.6863826  74.8459065  99.3832511  34.5388788  73.9175773  99.5640081
  35.5117319  74.8679156  98.8989586  28.5526070  63.4977132  95.2413003
  28.8922143  64.0263054  94.5191611  28.9998191  63.8357539  96.0171570
  38.2897948  75.6687624 100.4697384  39.2144495  75.4630485 100.3321835
  38.1213251  75.4204025 101.3786725  31.2469511  61.8814183 104.6916071
  30.9066331  61.0821996 105.0936751  30.5408517  62.1815894 104.1192904
  31.8985983  58.9663496 103.1443394  32.7212052  58.4923974 103.0222284
  32.1424046  59.7453979 103.6442080  30.5394217  61.9951754  93.4406296
  31.2602580  62.3733007  92.9370013  29.9159521  62.7140631  93.5441274
  34.6825340  62.6996903  94.3764628  34.8988955  63.5821541  94.0753456
  34.2019407  62.3083116  93.6470270  29.4224562  65.6582616 100.9535373
  29.2769142  65.9722919 101.8459654  28.9449765  66.2767517 100.4006271
  31.2820945  62.6485164 101.0016262  31.2682513  61.7526257 100.6648560
  31.9993373  62.6555828 101.6354548  33.1347075  63.0822504 103.0469390
  32.8764853  64.0039575 103.0453720  32.6032116  62.6852939 103.7369854
  38.0793264  76.1873291  95.8259475  38.2530142  75.6219714  95.0733328
  38.5722155  76.9874186  95.6438965  23.8970224  68.1987961 103.8923034
  23.3523692  68.9747769 104.0243308  24.7749574  68.5458765 103.7342155
  30.6857840  61.5299544  96.2703832  30.8073752  60.6016191  96.4694720
  30.3959883  61.5438230  95.3582148  33.5549031  59.2154455  99.4070552
  33.5770728  59.2793788  98.4522532  33.9717090  58.3758964  99.6011058
  43.9332655  68.9509714  97.4449775  44.3763801  68.2017040  97.0468898
  43.0559165  68.9419851  97.0623507  39.0668436  75.5040056  92.9256373
  39.7619341  76.1246749  93.1443688  39.4091587  74.6535407  93.2008751
  24.6836246  67.3257857 106.7853191  23.9417982  67.4740492 107.3717821
  24.3628990  67.5866122 105.9219940  40.9659860  72.9539761  94.4543704
  41.4911184  73.2927034  93.7293024  40.8782212  72.0186777  94.2706839
  32.6279908  76.8673835 106.5833581  32.9367035  76.6222982 107.4556280
  33.4255390  77.0720474 106.0952451  32.6500520  79.0211745  98.8138957
  32.2105511  78.5288123  99.5071814  33.4008637  78.4784712  98.5731033
  25.1292859  75.2123286  98.8163585  25.9550879  74.9127057  98.4362229
  24.7786911  74.4430908  99.2653374  30.0974393  74.5649754 100.8861259
  29.4754402  73.9020459 100.5863487  30.7679259  74.5910886 100.2034907
  23.3301464  73.1309612  99.7752519  22.4933373  72.7031786  99.5936520
  23.3025110  73.3242055 100.7123310  30.1698920  63.0431542 110.4793765
  30.2187075  63.9193665 110.0971535  30.7121434  62.5008935 109.9065408
  40.6553766  73.5872665 109.7594902  39.8649309  73.5696804 109.2199402
  40.4187120  74.1260959 110.5143939  40.7751641  70.4365131 107.0727631
  40.8249646  70.2715139 108.0143153  40.6665564  69.5692390 106.6825511
  29.6587899  73.1153677  94.3619720  29.8076020  73.7989142  93.7086392
  30.4654343  73.0958767  94.8769175  38.0655403  66.4196059 108.3886937
  38.9665266  66.2802524 108.0970935  38.1403378  66.5850514 109.3285115
  32.3998208  63.7962914 107.2340124  31.5301518  64.0896480 106.9622712
  32.6357689  64.3803359 107.9547387  42.2769838  72.8562073 107.3169652
  41.9854646  73.2192054 108.1533113  41.6641969  72.1429081 107.1382984
  43.4765520  70.4214953  99.8372222  44.3112411  70.8604757 100.0009783
  43.6124649  69.9453606  99.0180468  40.5257026  67.9794688 105.7849710
  41.0011147  68.1722334 104.9768562  39.6022591  68.0353873 105.5393094
  27.4140532  69.1418855  95.3680788  27.1686574  68.2381185  95.5660999
  27.5836447  69.1436005  94.4260266  35.1037242  60.0142531 104.7505544
  35.6219186  60.7503558 104.4252033  34.7492375  60.3206524 105.5852303
  26.6836180  64.8747212  92.8666950  25.9905425  64.9491567  92.2106986
  26.4387932  64.1107556  93.3888467  35.3549836  56.4342814 100.2706441
  35.6351590  55.7666003 100.8966867  36.1400443  56.6271909  99.7581105
  33.1583305  75.6101808  91.8331467  32.5857272  76.2291995  91.3801939
  33.7316099  76.1601169  92.3671389  39.2258695  64.8560448 104.0178016
  40.1776118  64.9558545 104.0390240  39.0562145  64.0638716 104.5276100
  37.2473074  61.9416031 104.2037417  36.6523006  62.2221044 103.5083905
  36.9622771  62.4309932 104.9754158  36.3780565  75.8938958  92.9640049
  37.3111238  75.8284519  93.1672925  36.2903778  76.7295225  92.5054582
  39.0068581  75.2104828  89.9243997  38.9282213  74.8764692  90.8179755
  39.8278248  75.7026596  89.9235469  41.7046773  68.0766567 103.1320315
  41.6723093  67.1382568 103.3179999  42.3147396  68.1550604 102.3986140
  33.5430103  66.9462620  89.1747519  34.4889208  66.8168828  89.2435938
  33.1644348  66.2077282  89.6516948  41.8541261  64.8677611 103.1778599
  41.3380310  64.0836067 102.9908528  42.7381210  64.5396327 103.3425118
  39.5151988  58.6118626  99.1374411  39.3176809  58.3033715 100.0217743
  40.1251694  59.3380265  99.2672341  47.5223322  69.1382574 102.2726352
  48.2526711  68.8767862 102.8334056  46.9130268  68.4011296 102.3128420
  45.6038620  67.2790437 102.8700803  44.8771783  67.1446402 102.2617295
  45.1885906  67.5867265 103.6757521  33.4268796  70.9980366 110.6348176
  34.3471805  71.1758965 110.8288223  33.3918379  70.0536412 110.4827876
  31.7273021  64.8712597  89.1102405  30.8204476  64.5745709  89.1865118
  32.0049002  64.5742415  88.2436691  22.6450961  66.1918960  99.5601451
  22.3253745  65.3384268  99.2675825  22.0984389  66.4067538 100.3159418
  26.4230869  68.9081401 103.2770958  26.6416878  69.8398509 103.2958991
  26.8356642  68.5489376 104.0625761  33.3435086  59.4149486  95.2646646
  32.5335815  59.0696571  95.6401892  34.0319503  59.1057030  95.8534258
  35.2725635  58.4927533  96.8870943  35.8256673  58.9122987  97.5460966
  35.5095721  57.5663281  96.9293899  31.2958734  64.4814607 112.6673707
  31.1955461  65.4308964 112.5985798  31.0780276  64.1532846 111.7949777
  30.4971805  61.7299532  89.2514384  31.3590969  62.0554430  89.5110201
  30.6822149  60.9431028  88.7387450  22.5139221  69.8121872 101.5294573
  21.8202692  69.3975824 101.0164527  23.2612212  69.8542408 100.9327992
  38.6504442  60.6028058  96.3949607  38.0703111  61.2612862  96.0127659
  38.3840374  59.7805403  95.9837024  37.1008008  60.0033116  98.5970927
  37.6007786  60.1149651  97.7885246  37.7443616  59.6994169  99.2371736
  31.1590004  67.9111746 111.4838768  30.6757086  68.7112106 111.6902657
  31.2450943  67.9219691 110.5306212  24.4275963  69.7440125  99.4060588
  24.4046652  69.8427813  98.4542471  24.7376600  70.5905276  99.7277754
  27.0863341  71.8016280 103.5207202  28.0406595  71.7700223 103.4537134
  26.8875865  71.3406904 104.3357428  27.6762723  70.3717396 106.0878000
  28.4955612  70.8661475 106.1112837  27.9499531  69.4549365 106.0595567
  37.4329320  62.7628149  95.4505955  36.5455175  63.0477799  95.2326150
  37.8483309  62.6021912  94.6033232  40.7843856  62.7874670  99.1660294
  41.5604246  63.2771122  99.4384911  40.0591990  63.2132724  99.6232164
  43.2216414  63.5002289 100.2234235  43.8160905  63.2598025  99.5127543
  43.2942998  62.7809420 100.8507771  25.4413570  77.3435900 100.5377400
  25.3068038  76.5836301  99.9715398  25.0245632  78.0676800 100.0706189
  36.5772533  72.5272823  89.5453975  37.2808383  72.7322826  90.1611631
  35.8535182  73.0949585  89.8103059  37.4070343  68.2782685  95.6656245
  37.3505545  68.7351236  94.8263878  37.9598686  67.5173369  95.4879088
  41.2175149  64.0672417  96.4906365  40.9612084  63.6669052  97.3214573
  40.5928017  64.7816211  96.3656504  45.5287487  66.8068490  98.9977656
  44.9687045  66.8761679  99.7709218  44.9230991  66.6309474  98.2777152
  28.5982696  78.2405217 100.7495843  28.4815080  79.1850649 100.6474533
  27.7775142  77.9378778 101.1381642  38.4859231  72.9655353  91.5952435
  39.3204835  72.5336551  91.4129910  38.3243573  72.7937366  92.5229330
  38.1405123  69.4687466  92.9608775  38.0853927  69.3031737  92.0197219
  37.5151178  70.1763499  93.1170964  22.9297638  64.7055530 106.7870197
  23.5756501  64.1954484 107.2757422  22.7214789  65.4424212 107.3613622
  35.4551030  71.7736378 112.2862337  36.3242190  71.9477030 111.9248972
  34.9757781  72.5930795 112.1638067  31.4501248  58.9695575  92.5394093
  31.4379918  59.9137415  92.6962364  32.3424670  58.7865720  92.2453554
  29.6237210  78.8933479 103.9651771  30.5264457  78.9257089 104.2818266
  29.3974580  77.9633930 103.9798107  31.3790812  77.6464465 100.6261850
  30.4286443  77.6466327 100.5126222  31.6823298  76.8997200 100.1097884
  35.2653368  55.5638352  96.7940030  34.4985763  55.0096838  96.9396712
  35.6764073  55.6360220  97.6554181  27.2695129  61.8523147 110.8845211
  28.1326590  61.4959952 111.0948536  26.6960539  61.5137042 111.5720615
  47.1143506  83.4825004 101.6907612  47.7521916  83.3631751 100.9870952
  46.9964349  84.4305848 101.7495564  43.9233212  83.4352432 101.6269137
  43.5851723  83.3193497 100.7389672  44.7922980  83.0343597 101.6070143
  39.7820028  85.2887908  97.6166028  39.2184893  85.1977845  96.8482315
  39.6672423  84.4687813  98.0968520  44.4052995  84.5887284 107.5855342
  44.3941636  84.1940082 106.7135846  44.5673634  83.8553356 108.1789114
  37.3284460  86.7839100 100.4550248  38.1205751  86.4429925 100.0396547
  37.5681110  86.8934075 101.3752401  45.3619586  88.9558876  92.9280493
  44.7107566  89.5412956  92.5414506  46.1563949  89.4865071  92.9875530
  39.2875214  86.0448013  93.3267627  40.0606090  85.4977000  93.1880503
  39.6400612  86.9092262  93.5382088  41.1260256  87.3724395 106.5334526
  40.8350122  88.2770026 106.4181192  41.7617240  87.4140923 107.2478596
  42.0516463  84.7501244 103.1235886  42.6480035  84.5257266 102.4092849
  42.1091434  84.0085989 103.7261334  41.6241491  82.2040679  90.9586077
  41.8767012  81.6822201  90.1969540  40.6866050  82.0406825  91.0612760
  46.6684774  81.2076458  98.7660820  47.4547863  80.7895881  98.4151237
  46.9323478  82.1122550  98.9342468  46.8394852  86.6449308  93.4649477
  46.2040684  86.7183934  94.1770381  46.5092258  87.2342907  92.7868556
  52.0693201  81.1451691  99.6693799  52.8018373  80.5750908  99.9031628
  51.3132557  80.7573291 100.1100304  41.3437780  84.1068785  93.1610452
  41.2274038  83.4313689  93.8291536  41.4540040  83.6201159  92.3442605
  43.6869321  83.5678932  96.8657141  43.3227528  83.0409553  97.5770062
  44.5436437  83.1777401  96.6923626  49.5918622  74.8573265 104.1288407
  49.2601946  75.7268676 103.9049622  48.9964235  74.5409549 104.8082438
  43.3274808  78.5968832  91.8618489  43.4949210  79.4649068  92.2288961
  43.1371977  78.7596114  90.9379779  46.0850141  87.0585811 103.5284320
  45.7850864  87.9610850 103.4200127  45.7401201  86.7917994 104.3805473
  39.5362623  83.5099608  99.5621024  38.6113119  83.3775822  99.7698716
  39.7847036  84.2893827 100.0590967  49.4847285  79.5768351 101.2081757
  48.5764162  79.5083760 100.9140518  49.4334881  80.0540296 102.0363583
  43.3064029  81.0526490  92.8465156  43.1863654  81.4983540  93.6850637
  42.6116617  81.4011807  92.2878694  36.8971434  83.1532881 100.3964813
  37.0263815  83.4067360 101.3104225  36.2168885  83.7460589 100.0769468
  41.0670921  93.8230131  96.4955288  40.9894951  94.7737956  96.5743768
  40.4632565  93.4776004  97.1530214  43.5588151  80.9957997 109.1516654
  42.7821485  81.5551917 109.1419519  44.1978714  81.4814780 109.6731525
  51.3508931  77.7784789 102.9859631  50.7083312  78.0717323 102.3399426
  50.8463860  77.6637710 103.7912828  49.0049095  81.5247963  93.6745490
  49.9166951  81.7575349  93.4993188  48.4958742  82.1085007  93.1120569
  41.8134523  83.8043450 108.7134621  42.5549207  84.3428494 108.4369445
  41.1071509  84.4309739 108.8706173  47.2889863  85.9472591 107.3106783
  47.6973219  85.5055001 106.5661415  46.5667124  85.3725218 107.5640976
  43.6420933  80.8845197 104.6840340  44.4882128  81.3084611 104.8274989
  43.5819570  80.2278822 105.3778903  47.6118677  86.5073781 101.0659072
  46.9827540  86.6719495 100.3635140  47.2244339  86.9215391 101.8370036
  51.4907909  87.4428219  98.4203436  50.8058947  87.8227120  97.8700469
  51.5751759  88.0523546  99.1535383  46.7920378  78.5449566 106.3421514
  46.5481310  79.2991626 105.8055789  47.0680309  78.9234913 107.1768761
  48.7458841  85.0888178 105.0198779  48.9575736  85.7319938 104.3433160
  48.6988589  84.2550495 104.5520709  46.3485070  77.7005999 101.9235351
  45.4869549  77.9987252 102.2152089  46.3747504  77.9176398 100.9916384
  43.1646639  86.2448189  98.3309157  43.6284985  86.5235892  97.5413779
  42.9003437  85.3431634  98.1482248  40.0570720  85.7919671 101.2688920
  40.6272077  86.2206939 100.6306405  40.6478832  85.5102255 101.9673106
  42.1015525  82.3671342  95.1398722  42.8039569  82.8192385  95.6072648
  41.7696154  81.7255160  95.7678615  40.5495887  80.9583098 109.5149931
  39.9194547  81.6399379 109.7485328  40.4431975  80.8466180 108.5703070
  35.8440859  80.6254894 100.4415856  35.0539913  80.8812423  99.9655966
  36.3352107  81.4403232 100.5467896  49.8604669  87.9660133 103.1921136
  50.6822113  87.5640321 102.9103818  49.8567072  87.8628368 104.1437252
  37.7955605  80.9899474  97.3999332  36.9986768  81.1018168  97.9182828
  37.5681197  81.3286126  96.5340223  43.6261272  87.5144177 105.3481847
  43.6905705  87.9764584 106.1840019  42.9172196  86.8841542 105.4764157
  34.1278562  80.8785385 102.8730846  34.3786601  81.7632395 103.1388422
  34.6638111  80.6989986 102.1005938  57.9510662  84.3098882  99.5406108
  57.1974370  83.7406280  99.3850112  58.0858203  84.2761546 100.4876743
  43.3409290  89.1812284  95.2160827  43.2054965  90.0263820  95.6445675
  43.8819102  89.3831562  94.4526761  39.8276630  75.2603864 111.8775183
  39.4343575  74.7070063 112.5522827  40.6442770  75.5714443 112.2681700
  36.7938687  86.6987722  95.7888752  37.3063208  87.4930973  95.9394317
  37.4461400  86.0014013  95.7222354  38.6033572  89.8153479  97.8711506
  38.7800200  90.7371443  97.6832489  39.3990405  89.5011898  98.3005885
  42.7444591  76.6761743 109.4695439  43.4854304  77.2768896 109.3899902
  42.9762513  75.9339381 108.9113482  37.8885929  81.8618110 107.7473669
  37.7739444  80.9603368 108.0480768  37.0330446  82.1081807 107.3958485
  44.9677766  89.8035851 109.3461169  44.5241620  89.0172229 109.0282074
  45.6294980  89.9915001 108.6805060  39.7264887  91.3331652 103.8721848
  40.2772313  91.2048716 103.0998842  38.8876363  91.6326541 103.5216741
  47.0659004  90.0838651 107.3742571  47.0477480  90.9047532 106.8822840
  47.9878924  89.9592726 107.5992712  43.5232058  87.5982780 108.2166079
  44.0560395  86.8371068 107.9865387  42.9946140  87.3056432 108.9590233
  46.6901753  72.7042846 103.7459721  46.3466023  73.5944488 103.6698831
  47.0580716  72.5144504 102.8829306  34.7587604  85.0276377  96.5648323
  35.5962826  85.4373385  96.3482031  34.9365872  84.0875819  96.5348517
  46.6552036  82.6951457  92.2532156  46.1398660  83.4656062  92.4920543
  46.3829345  82.0216593  92.8765217  44.2399147  77.5401158  97.3117394
  43.3840744  77.1508008  97.1323033  44.6526099  77.6193119  96.4517180
  45.7698294  75.0747501 101.7108954  45.2663089  75.0377636 100.8976759
  46.0628901  75.9840244 101.7705611  42.0141180  75.1586231 100.7175136
  42.8794176  74.9629040 100.3581025  42.0818689  74.9296583 101.6444492
  51.6286310  85.4483812  94.1885329  50.8515753  85.1094971  93.7440491
  52.3077791  85.4536435  93.5140294  46.4438339  80.5678549  94.0791937
  46.1388475  80.8824698  94.9302080  47.3968781  80.6459969  94.1219270
  44.8884771  86.7268773  95.7284891  44.3606133  85.9921532  95.4158128
  44.3872274  87.5043449  95.4824859  49.8677617  84.9217793 100.8451937
  49.2101292  85.6117055 100.9332066  50.6718016  85.3114225 101.1885924
  39.6203499  77.3888439  98.0891503  40.1947251  77.1663620  97.3564695
  40.2074481  77.4577133  98.8420104  48.6783076  83.2762166  98.8955879
  49.1914958  83.9092158  99.3977589  49.3284300  82.6763361  98.5299239
  39.9473086  79.4192900  92.1087388  39.1110398  79.7567586  92.4296663
  39.8077856  79.2841880  91.1714525  41.9226167  74.2629688  96.8166572
  41.2690579  73.9478705  96.1923187  41.8806641  73.6405428  97.5426395
  43.0337371  84.5448983  88.7319864  42.1264433  84.3138236  88.9311013
  43.5308403  83.7486602  88.9193846  45.9405450  93.2546490  91.6516550
  45.2667149  93.5578187  92.2601508  46.3271272  94.0575570  91.3022007
  45.1563907  80.7511621 101.1414220  44.2386468  80.9726568 100.9835908
  45.5724050  80.8257932 100.2825927  45.9398955  82.1503037  96.2716900
  46.6870774  82.6624434  95.9624022  46.2090544  81.8287090  97.1321293
  44.2125605  84.6461578  93.2543854  43.3036824  84.3620611  93.3516324
  44.2420689  85.0660656  92.3947161  49.4444872  88.2568167  97.0235022
  48.9907199  87.4159077  97.0800212  48.8138839  88.8929566  97.3609802
  48.3877792  79.1860153  98.2535689  47.6500549  78.6737539  98.5845932
  48.6404565  78.7460535  97.4418966  47.8877811  90.0944664  97.9584840
  48.1800786  90.6549721  97.2397205  48.3976432  90.3873225  98.7137999
  48.4889419  71.9636405  98.8477458  48.7948296  71.1033769  98.5603374
  49.2142024  72.5554025  98.6476452  34.7813775  82.3667092  97.2359056
  34.5838175  81.7736453  96.5110123  34.2260439  82.0619302  97.9534995
  42.7610499  82.2590198  99.3553649  42.8159109  81.3064035  99.2796126
  41.9501701  82.4149637  99.8394948  43.9101693  86.1870321  90.5931933
  43.4721123  85.4706180  90.1337570  44.6512133  86.4146436  90.0317024
  40.7002859  80.8767258  97.1144028  39.8870724  81.1761429  97.5209221
  41.1961853  80.4822947  97.8318511  42.8511437  90.8725015  99.0478293
  42.8087615  91.0985861  98.1186825  43.7674136  90.6388390  99.1964094
  46.2977070  81.3409083 105.9458922  46.6526458  81.5680556 106.8053388
  46.9449202  81.6727459 105.3236178  52.0274807  84.4627518  96.6508251
  51.8892706  84.6529114  95.7229441  51.6711026  85.2246901  97.1076302
  40.1916934  78.4485614 102.7305263  40.8316313  78.3074373 102.0328227
  39.3594464  78.1620127 102.3543865  52.0544187  86.5304045 101.6619523
  52.4880694  86.4379335 102.5102577  52.7675768  86.5061546 101.0239539
  40.9677237  87.7488044  98.8440256  41.7617836  87.2538364  98.6422831
  40.2568930  87.2205907  98.4807961  45.7872082  90.1306140 103.1952623
  45.8409104  90.6997076 103.9630339  44.9186863  90.3008025 102.8306661
  37.2760001  81.8931126  94.9200008  36.3457589  81.8315581  95.1369971
  37.3717473  81.3707079  94.1236650  37.1945550  78.4185939  97.5078250
  37.4552367  79.3331272  97.3987411  38.0162722  77.9510381  97.6574863
  38.6670475  79.8323696 104.6777075  39.3393529  79.6241058 104.0289724
  37.8400262  79.6345782 104.2382307  52.9159737  86.5727746 104.1952408
  53.1095627  87.4773557 104.4411683  52.8160355  86.1135165 105.0290993
  44.5696047  76.4585637 106.6942736  43.9223962  77.1575586 106.6007212
  45.3397063  76.8921781 107.0618984  47.9774845  86.7234489 109.7693289
  47.8260352  86.4945041 108.8523372  47.9679525  87.6805090 109.7824634
  44.7460182  84.2966402 104.7539555  45.6752242  84.4477561 104.5808523
  44.3251212  84.3850422 103.8988202  43.5448513  88.3217066 102.5238093
  43.4059599  87.9535850 103.3964031  42.7563110  88.8364705 102.3522051
  44.1396665  93.4226162  93.8663629  44.3148421  92.9514206  94.6809252
  43.4529453  94.0491929  94.0944890  45.0953729  87.6998669  99.9126931
  44.7603561  87.6599439 100.8084581  44.5957674  87.0343385  99.4397341
  39.0697973  83.1066299 105.4379512  38.9317770  82.3746538 106.0391051
  39.9802896  83.0175199 105.1563700  48.0312920  85.0454703  90.1863990
  47.4142091  84.3201531  90.0897043  47.5629409  85.8064063  89.8431065
  41.6980273  82.8186258 104.9263191  42.4079892  82.1779450 104.8849810
  41.6549581  83.0699153 105.8489372  49.6867052  89.7553611 107.8469771
  49.6279598  89.0712832 107.1800354  50.0886570  90.4972601 107.3950397
  40.4109207  79.8051476 106.7458831  39.8746564  79.3542214 107.3980427
  39.8225916  79.9397385 106.0029295  38.7057751  96.5715525 100.6403490
  38.9454349  97.2034049 101.3182508  37.8626947  96.2203565 100.9268849
  39.8211466  79.2640127  89.3085295  38.9440932  79.1428928  88.9447541
  40.2969219  78.4726206  89.0564183  49.6884459  87.7193195 106.0783750
  48.8011238  87.3819117 106.2010149  50.2583010  86.9876227 106.3152516
  31.3413606  84.0517287  99.4026802  32.0284646  83.7379017  98.8147817
  31.1861735  84.9558652  99.1294053  36.1448328  78.9407484 103.8311825
  36.0606517  78.3333153 103.0962235  35.3231035  79.4316502 103.8321322
  43.2185613  92.3794648 103.0444994  43.1455784  93.1849619 103.5564298
  42.7763006  92.5786614 102.2193015  43.0075392  91.6166418  96.5547815
  42.2242914  92.1588098  96.6486040  43.7068137  92.1340397  96.9542056
  46.3172042  77.4261047  99.1982020  46.8140742  76.6731010  98.8783091
  45.5459024  77.4625364  98.6325230  54.1701800  83.1301413 100.8400312
  54.1591676  84.0126128 100.4694245  53.3019179  82.7772964 100.6454849
  45.6784296  92.2781482 105.2003152  46.3912268  92.9128947 105.1279054
  45.1874325  92.3745348 104.3843154  47.4001823  86.1832734  96.7720444
  46.4658102  86.3034197  96.6025148  47.5778491  85.2805201  96.5080454
  42.9007011  79.5678430  98.9253705  42.5304799  79.0149471  99.6134611
  43.3966103  78.9636564  98.3728705  50.7874374  82.0250054  97.3070478
  51.2534827  82.8578045  97.2330781  51.2381875  81.5595035  98.0115737
  40.7296210  90.0275925 106.0208723  41.4305669  90.6612408 106.1738117
  40.2591325  90.3690657 105.2604362  48.8550605  88.3693875  94.3056630
  49.1310449  88.2550470  95.2150504  47.9855104  87.9711360  94.2668803
  48.7591037  74.3930641 101.3461379  47.8454117  74.6234868 101.5143586
  49.1884139  74.4769085 102.1975412  48.5297496  82.5820533 103.8461273
  47.8768946  82.8296440 103.1913726  48.9077875  81.7684671 103.5123751
  45.4904669  92.6180226  97.9489444  45.6727064  91.8001882  98.4117196
  46.3137655  92.8347918  97.5114334  45.8246835  91.5448411  95.2104492
  46.3534601  91.0340866  94.5974654  46.0875055  91.2290941  96.0750025
  44.5785069  83.3240344 110.3327310  43.9025706  83.2234473 111.0029686
  45.4012702  83.1679557 110.7963308  36.3263928  89.5612280 102.9539826
  36.9117364  88.8155968 103.0867730  36.1288766  89.8716237 103.8376490
  39.1802583  92.5963528  97.9702268  38.5112958  93.0809655  97.4866308
  39.0415453  92.8432748  98.8845647  30.9181582  82.1317880 101.6744269
  30.9565682  81.5981471 102.4681387  30.4121875  81.6053086 101.0555246
  43.3207851  94.6307271 104.5684926  43.8726160  94.7938893 105.3334012
  43.6614045  95.2211709 103.8964951  38.2972345  76.9782421 105.1706811
  38.3613671  77.8397252 104.7584209  38.2339465  76.3656423 104.4379170
  37.7724617  79.0505554 108.8179845  38.3996656  78.6682631 109.4317370
  36.9152536  78.8319755 109.1835538  48.1718726  89.4568529 110.4233581
  48.7158630  90.0698487 109.9288536  47.5905571  90.0148107 110.9400594
  34.5490160  80.8581983  94.7498200  34.8443601  79.9492661  94.6965254
  33.6478196  80.8369722  94.4279203  46.4576239  92.5789247 101.5548609
  46.3327378  91.7778987 101.0459554  47.1155330  93.0735440 101.0662579
  38.0784407  78.9337979 100.7325749  37.3570993  79.5473947 100.5933222
  38.8677663  79.4695744 100.6542395  48.5211147  90.3798267 103.1828159
  47.5741483  90.2603618 103.1106485  48.8693920  89.4920765 103.2654420
  40.8810721  76.2692406 107.0066401  41.4045122  76.5154702 107.7692710
  40.6623054  77.1012440 106.5869538  36.2778002  78.5396080  94.8737525
  35.9490708  77.6593459  94.6912631  36.6317372  78.4843749  95.7613915
  45.5257580  90.1750983  99.3832511  45.3782543  89.2467690  99.5640081
  46.3511074  90.1971074  98.8989586  39.3919825  78.8269050  95.2413003
  39.7315897  79.3554971  94.5191611  39.8391945  79.1649456  96.0171570
  49.1291702  90.9979542 100.4697384  50.0538250  90.7922403 100.3321835
  48.9607006  90.7495943 101.3786725  42.0863266  77.2106101 104.6916071
  41.7460086  76.4113914 105.0936751  41.3802272  77.5107812 104.1192904
  42.7379737  74.2955413 103.1443394  43.5605807  73.8215891 103.0222284
  42.9817801  75.0745897 103.6442080  41.3787972  77.3243672  93.4406296
  42.0996334  77.7024924  92.9370013  40.7553276  78.0432548  93.5441274
  45.5219095  78.0288821  94.3764628  45.7382709  78.9113459  94.0753456
  45.0413162  77.6375034  93.6470270  40.2618316  80.9874534 100.9535373
  40.1162897  81.3014837 101.8459654  39.7843520  81.6059434 100.4006271
  42.1214699  77.9777082 101.0016262  42.1076268  77.0818175 100.6648560
  42.8387127  77.9847746 101.6354548  43.9740830  78.4114422 103.0469390
  43.7158608  79.3331493 103.0453720  43.4425870  78.0144857 103.7369854
  48.9187018  91.5165209  95.8259475  49.0923896  90.9511632  95.0733328
  49.4115910  92.3166104  95.6438965  34.7363978  83.5279878 103.8923034
  34.1917446  84.3039686 104.0243308  35.6143328  83.8750683 103.7342155
  41.5251595  76.8591462  96.2703832  41.6467506  75.9308108  96.4694720
  41.2353637  76.8730148  95.3582148  44.3942785  74.5446373  99.4070552
  44.4164482  74.6085706  98.4522532  44.8110844  73.7050881  99.6011058
  54.7726410  84.2801632  97.4449775  55.2157556  83.5308957  97.0468898
  53.8952920  84.2711768  97.0623507  49.9062191  90.8331974  92.9256373
  50.6013096  91.4538666  93.1443688  50.2485341  89.9827325  93.2008751
  35.5230000  82.6549775 106.7853191  34.7811736  82.8032410 107.3717821
  35.2022744  82.9158040 105.9219940  51.8053614  88.2831679  94.4543704
  52.3304938  88.6218952  93.7293024  51.7175967  87.3478694  94.2706839
  43.4673663  92.1965753 106.5833581  43.7760789  91.9514900 107.4556280
  44.2649145  92.4012391 106.0952451  43.4894275  94.3503662  98.8138957
  43.0499265  93.8580041  99.5071814  44.2402392  93.8076630  98.5731033
  35.9686614  90.5415203  98.8163585  36.7944634  90.2418975  98.4362229
  35.6180666  89.7722826  99.2653374  40.9368147  89.8941671 100.8861259
  40.3148156  89.2312376 100.5863487  41.6073014  89.9202803 100.2034907
  34.1695219  88.4601530  99.7752519  33.3327127  88.0323704  99.5936520
  34.1418864  88.6533973 100.7123310  41.0092674  78.3723459 110.4793765
  41.0580830  79.2485582 110.0971535  41.5515189  77.8300853 109.9065408
  51.4947520  88.9164583 109.7594902  50.7043064  88.8988722 109.2199402
  51.2580875  89.4552876 110.5143939  51.6145395  85.7657049 107.0727631
  51.6643400  85.6007057 108.0143153  51.5059319  84.8984308 106.6825511
  40.4981654  88.4445595  94.3619720  40.6469774  89.1281059  93.7086392
  41.3048097  88.4250685  94.8769175  48.9049158  81.7487977 108.3886937
  49.8059020  81.6094442 108.0970935  48.9797132  81.9142432 109.3285115
  43.2391963  79.1254832 107.2340124  42.3695272  79.4188398 106.9622712
  43.4751443  79.7095277 107.9547387  53.1163592  88.1853991 107.3169652
  52.8248400  88.5483971 108.1533113  52.5035723  87.4720999 107.1382984
  54.3159274  85.7506870  99.8372222  55.1506166  86.1896674 100.0009783
  54.4518403  85.2745524  99.0180468  51.3650780  83.3086605 105.7849710
  51.8404902  83.5014252 104.9768562  50.4416346  83.3645791 105.5393094
  38.2534287  84.4710772  95.3680788  38.0080329  83.5673102  95.5660999
  38.4230201  84.4727923  94.4260266  45.9430997  75.3434449 104.7505544
  46.4612941  76.0795476 104.4252033  45.5886130  75.6498442 105.5852303
  37.5229934  80.2039130  92.8666950  36.8299179  80.2783485  92.2106986
  37.2781686  79.4399474  93.3888467  46.1943591  71.7634731 100.2706441
  46.4745345  71.0957920 100.8966867  46.9794198  71.9563827  99.7581105
  43.9977059  90.9393725  91.8331467  43.4251027  91.5583912  91.3801939
  44.5709853  91.4893087  92.3671389  50.0652449  80.1852365 104.0178016
  51.0169872  80.2850463 104.0390240  49.8955900  79.3930634 104.5276100
  48.0866829  77.2707949 104.2037417  47.4916761  77.5512961 103.5083905
  47.8016525  77.7601849 104.9754158  47.2174319  91.2230875  92.9640049
  48.1504992  91.1576437  93.1672925  47.1297532  92.0587142  92.5054582
  49.8462336  90.5396746  89.9243997  49.7675967  90.2056609  90.8179755
  50.6672003  91.0318514  89.9235469  52.5440527  83.4058485 103.1320315
  52.5116847  82.4674486 103.3179999  53.1541151  83.4842522 102.3986140
  44.3823858  82.2754538  89.1747519  45.3282963  82.1460746  89.2435938
  44.0038103  81.5369200  89.6516948  52.6935016  80.1969528 103.1778599
  52.1774064  79.4127985 102.9908528  53.5774964  79.8688245 103.3425118
  50.3545742  73.9410544  99.1374411  50.1570564  73.6325632 100.0217743
  50.9645448  74.6672183  99.2672341  58.3617077  84.4674492 102.2726352
  59.0920465  84.2059780 102.8334056  57.7524022  83.7303214 102.3128420
  56.4432374  82.6082354 102.8700803  55.7165538  82.4738319 102.2617295
  56.0279661  82.9159183 103.6757521  44.2662550  86.3272284 110.6348176
  45.1865560  86.5050883 110.8288223  44.2312133  85.3828329 110.4827876
  42.5666775  80.2004514  89.1102405  41.6598230  79.9037627  89.1865118
  42.8442756  79.9034332  88.2436691  33.4844715  81.5210878  99.5601451
  33.1647500  80.6676186  99.2675825  32.9378144  81.7359456 100.3159418
  37.2624623  84.2373319 103.2770958  37.4810633  85.1690427 103.2958991
  37.6750397  83.8781293 104.0625761  44.1828841  74.7441404  95.2646646
  43.3729569  74.3988489  95.6401892  44.8713258  74.4348948  95.8534258
  46.1119389  73.8219451  96.8870943  46.6650428  74.2414904  97.5460966
  46.3489475  72.8955199  96.9293899  42.1352488  79.8106525 112.6673707
  42.0349215  80.7600882 112.5985798  41.9174030  79.4824763 111.7949777
  41.3365560  77.0591450  89.2514384  42.1984724  77.3846348  89.5110201
  41.5215904  76.2722946  88.7387450  33.3532975  85.1413789 101.5294573
  32.6596447  84.7267742 101.0164527  34.1005966  85.1834326 100.9327992
  49.4898196  75.9319976  96.3949607  48.9096865  76.5904780  96.0127659
  49.2234129  75.1097321  95.9837024  47.9401763  75.3325034  98.5970927
  48.4401541  75.4441568  97.7885246  48.5837370  75.0286087  99.2371736
  41.9983758  83.2403663 111.4838768  41.5150840  84.0404024 111.6902657
  42.0844697  83.2511608 110.5306212  35.2669718  85.0732043  99.4060588
  35.2440406  85.1719730  98.4542471  35.5770354  85.9197194  99.7277754
  37.9257096  87.1308198 103.5207202  38.8800349  87.0992140 103.4537134
  37.7269619  86.6698822 104.3357428  38.5156478  85.7009314 106.0878000
  39.3349367  86.1953393 106.1112837  38.7893286  84.7841282 106.0595567
  48.2723074  78.0920066  95.4505955  47.3848929  78.3769717  95.2326150
  48.6877063  77.9313830  94.6033232  51.6237610  78.1166587  99.1660294
  52.3998000  78.6063040  99.4384911  50.8985745  78.5424642  99.6232164
  54.0610169  78.8294207 100.2234235  54.6554660  78.5889943  99.5127543
  54.1336753  78.1101337 100.8507771  36.2807325  92.6727818 100.5377400
  36.1461793  91.9128218  99.9715398  35.8639387  93.3968717 100.0706189
  47.4166288  87.8564741  89.5453975  48.1202138  88.0614744  90.1611631
  46.6928936  88.4241503  89.8103059  48.2464098  83.6074602  95.6656245
  48.1899299  84.0643154  94.8263878  48.7992440  82.8465287  95.4879088
  52.0568904  79.3964334  96.4906365  51.8005838  78.9960970  97.3214573
  51.4321772  80.1108128  96.3656504  56.3681242  82.1360408  98.9977656
  55.8080800  82.2053597  99.7709218  55.7624745  81.9601392  98.2777152
  39.4376451  93.5697135 100.7495843  39.3208835  94.5142567 100.6474533
  38.6168897  93.2670696 101.1381642  49.3252985  88.2947270  91.5952435
  50.1598589  87.8628469  91.4129910  49.1637328  88.1229284  92.5229330
  48.9798877  84.7979384  92.9608775  48.9247681  84.6323655  92.0197219
  48.3544933  85.5055417  93.1170964  33.7691392  80.0347448 106.7870197
  34.4150256  79.5246402 107.2757422  33.5608543  80.7716130 107.3613622
  46.2944784  87.1028295 112.2862337  47.1635944  87.2768948 111.9248972
  45.8151536  87.9222712 112.1638067  42.2895003  74.2987493  92.5394093
  42.2773673  75.2429333  92.6962364  43.1818425  74.1157638  92.2453554
  40.4630965  94.2225397 103.9651771  41.3658211  94.2549007 104.2818266
  40.2368335  93.2925847 103.9798107  42.2184567  92.9756383 100.6261850
  41.2680198  92.9758245 100.5126222  42.5217053  92.2289118 100.1097884
  46.1047122  70.8930269  96.7940030  45.3379518  70.3388756  96.9396712
  46.5157827  70.9652138  97.6554181  38.1088883  77.1815065 110.8845211
  38.9720345  76.8251870 111.0948536  37.5354294  76.8428960 111.5720615
  57.9537260  98.8116921 101.6907612  58.5915670  98.6923669 100.9870952
  57.8358103  99.7597765 101.7495564  54.7626966  98.7644350 101.6269137
  54.4245478  98.6485414 100.7389672  55.6316735  98.3635515 101.6070143
  50.6213782 100.6179826  97.6166028  50.0578647 100.5269763  96.8482315
  50.5066177  99.7979730  98.0968520  55.2446749  99.9179201 107.5855342
  55.2335390  99.5232000 106.7135846  55.4067389  99.1845274 108.1789114
  48.1678214 102.1131018 100.4550248  48.9599506 101.7721842 100.0396547
  48.4074864 102.2225993 101.3752401  56.2013341 104.2850794  92.9280493
  55.5501321 104.8704874  92.5414506  56.9957704 104.8156989  92.9875530
  50.1268968 101.3739931  93.3267627  50.8999844 100.8268918  93.1880503
  50.4794367 102.2384180  93.5382088  51.9654011 102.7016313 106.5334526
  51.6743877 103.6061944 106.4181192  52.6010995 102.7432841 107.2478596
  52.8910217 100.0793162 103.1235886  53.4873790  99.8549184 102.4092849
  52.9485189  99.3377907 103.7261334  52.4635246  97.5332597  90.9586077
  52.7160767  97.0114118  90.1969540  51.5259805  97.3698742  91.0612760
  57.5078529  96.5368375  98.7660820  58.2941618  96.1187798  98.4151237
  57.7717233  97.4414467  98.9342468  57.6788606 101.9741226  93.4649477
  57.0434439 102.0475852  94.1770381  57.3486012 102.5634824  92.7868556
  62.9086956  96.4743608  99.6693799  63.6412128  95.9042825  99.9031628
  62.1526311  96.0865209 100.1100304  52.1831535  99.4360703  93.1610452
  52.0667793  98.7605606  93.8291536  52.2933794  98.9493077  92.3442605
  54.5263075  98.8970850  96.8657141  54.1621283  98.3701471  97.5770062
  55.3830191  98.5069319  96.6923626  60.4312376  90.1865183 104.1288407
  60.0995701  91.0560594 103.9049622  59.8357990  89.8701467 104.8082438
  54.1668562  93.9260750  91.8618489  54.3342965  94.7940986  92.2288961
  53.9765732  94.0888031  90.9379779  56.9243896 102.3877729 103.5284320
  56.6244619 103.2902767 103.4200127  56.5794955 102.1209912 104.3805473
  50.3756377  98.8391525  99.5621024  49.4506874  98.7067740  99.7698716
  50.6240790  99.6185745 100.0590967  60.3241039  94.9060269 101.2081757
  59.4157917  94.8375677 100.9140518  60.2728635  95.3832214 102.0363583
  54.1457783  96.3818407  92.8465156  54.0257409  96.8275458  93.6850637
  53.4510372  96.7303725  92.2878694  47.7365188  98.4824799 100.3964813
  47.8657569  98.7359278 101.3104225  47.0562639  99.0752507 100.0769468
  51.9064675 109.1522049  96.4955288  51.8288705 110.1029874  96.5743768
  51.3026319 108.8067921  97.1530214  54.3981905  96.3249914 109.1516654
  53.6215239  96.8843835 109.1419519  55.0372468  96.8106697 109.6731525
  62.1902686  93.1076707 102.9859631  61.5477066  93.4009240 102.3399426
  61.6857614  92.9929628 103.7912828  59.8442850  96.8539880  93.6745490
  60.7560706  97.0867267  93.4993188  59.3352497  97.4376925  93.1120569
  52.6528278  99.1335368 108.7134621  53.3942962  99.6720412 108.4369445
  51.9465263  99.7601656 108.8706173  58.1283617 101.2764508 107.3106783
  58.5366973 100.8346919 106.5661415  57.4060879 100.7017136 107.5640976
  54.4814687  96.2137115 104.6840340  55.3275882  96.6376529 104.8274989
  54.4213325  95.5570739 105.3778903  58.4512432 101.8365699 101.0659072
  57.8221294 102.0011413 100.3635140  58.0638094 102.2507308 101.8370036
  62.3301664 102.7720137  98.4203436  61.6452702 103.1519038  97.8700469
  62.4145513 103.3815463  99.1535383  57.6314133  93.8741483 106.3421514
  57.3875064  94.6283544 105.8055789  57.9074063  94.2526831 107.1768761
  59.5852595 100.4180096 105.0198779  59.7969491 101.0611856 104.3433160
  59.5382344  99.5842412 104.5520709  57.1878824  93.0297916 101.9235351
  56.3263303  93.3279170 102.2152089  57.2141259  93.2468315 100.9916384
  54.0040394 101.5740107  98.3309157  54.4678739 101.8527810  97.5413779
  53.7397192 100.6723551  98.1482248  50.8964475 101.1211588 101.2688920
  51.4665832 101.5498857 100.6306405  51.4872587 100.8394173 101.9673106
  52.9409280  97.6963259  95.1398722  53.6433323  98.1484303  95.6072648
  52.6089908  97.0547078  95.7678615  51.3889641  96.2875016 109.5149931
  50.7588302  96.9691297 109.7485328  51.2825729  96.1758098 108.5703070
  46.6834614  95.9546812 100.4415856  45.8933668  96.2104340  99.9655966
  47.1745861  96.7695150 100.5467896  60.6998423 103.2952051 103.1921136
  61.5215867 102.8932238 102.9103818  60.6960826 103.1920285 104.1437252
  48.6349359  96.3191391  97.3999332  47.8380522  96.4310085  97.9182828
  48.4074951  96.6578043  96.5340223  54.4655027 102.8436094 105.3481847
  54.5299459 103.3056502 106.1840019  53.7565951 102.2133459 105.4764157
  44.9672317  96.2077302 102.8730846  45.2180355  97.0924312 103.1388422
  45.5031865  96.0281904 102.1005938  68.7904416  99.6390800  99.5406108
  68.0368125  99.0698198  99.3850112  68.9251958  99.6053464 100.4876743
  54.1803044 104.5104202  95.2160827  54.0448719 105.3555738  95.6445675
  54.7212857 104.7123480  94.4526761  50.6670384  90.5895782 111.8775183
  50.2737330  90.0361980 112.5522827  51.4836524  90.9006360 112.2681700
  47.6332442 102.0279640  95.7888752  48.1456962 102.8222890  95.9394317
  48.2855155 101.3305930  95.7222354  49.4427326 105.1445396  97.8711506
  49.6193955 106.0663361  97.6832489  50.2384160 104.8303815  98.3005885
  53.5838345  92.0053661 109.4695439  54.3248058  92.6060814 109.3899902
  53.8156268  91.2631299 108.9113482  48.7279683  97.1910028 107.7473669
  48.6133198  96.2895285 108.0480768  47.8724201  97.4373725 107.3958485
  55.8071521 105.1327768 109.3461169  55.3635375 104.3464147 109.0282074
  56.4688734 105.3206919 108.6805060  50.5658642 106.6623570 103.8721848
  51.1166067 106.5340633 103.0998842  49.7270118 106.9618459 103.5216741
  57.9052759 105.4130568 107.3742571  57.8871234 106.2339449 106.8822840
  58.8272679 105.2884644 107.5992712  54.3625813 102.9274698 108.2166079
  54.8954150 102.1662986 107.9865387  53.8339894 102.6348350 108.9590233
  57.5295508  88.0334764 103.7459721  57.1859777  88.9236405 103.6698831
  57.8974471  87.8436421 102.8829306  45.5981359 100.3568294  96.5648323
  46.4356581 100.7665303  96.3482031  45.7759626  99.4167736  96.5348517
  57.4945791  98.0243375  92.2532156  56.9792414  98.7947980  92.4920543
  57.2223099  97.3508511  92.8765217  55.0792902  92.8693076  97.3117394
  54.2234498  92.4799926  97.1323033  55.4919853  92.9485036  96.4517180
  56.6092048  90.4039419 101.7108954  56.1056844  90.3669554 100.8976759
  56.9022655  91.3132162 101.7705611  52.8534934  90.4878149 100.7175136
  53.7187931  90.2920957 100.3581025  52.9212443  90.2588500 101.6444492
  62.4680065 100.7775730  94.1885329  61.6909508 100.4386889  93.7440491
  63.1471546 100.7828353  93.5140294  57.2832094  95.8970467  94.0791937
  56.9782229  96.2116616  94.9302080  58.2362536  95.9751887  94.1219270
  55.7278526 102.0560690  95.7284891  55.1999887 101.3213450  95.4158128
  55.2266028 102.8335367  95.4824859  60.7071372 100.2509711 100.8451937
  60.0495046 100.9408972 100.9332066  61.5111771 100.6406143 101.1885924
  50.4597253  92.7180357  98.0891503  51.0341005  92.4955538  97.3564695
  51.0468236  92.7869051  98.8420104  59.5176831  98.6054083  98.8955879
  60.0308712  99.2384075  99.3977589  60.1678054  98.0055279  98.5299239
  50.7866840  94.7484818  92.1087388  49.9504153  95.0859504  92.4296663
  50.6471610  94.6133797  91.1714525  52.7619921  89.5921605  96.8166572
  52.1084333  89.2770623  96.1923187  52.7200395  88.9697346  97.5426395
  53.8731126  99.8740901  88.7319864  52.9658188  99.6430154  88.9311013
  54.3702158  99.0778520  88.9193846  56.7799205 108.5838408  91.6516550
  56.1060904 108.8870105  92.2601508  57.1665027 109.3867488  91.3022007
  55.9957661  96.0803539 101.1414220  55.0780223  96.3018486 100.9835908
  56.4117805  96.1549849 100.2825927  56.7792709  97.4794955  96.2716900
  57.5264528  97.9916352  95.9624022  57.0484299  97.1579007  97.1321293
  55.0519359  99.9753495  93.2543854  54.1430579  99.6912528  93.3516324
  55.0814443 100.3952574  92.3947161  60.2838627 103.5860085  97.0235022
  59.8300954 102.7450995  97.0800212  59.6532593 104.2221483  97.3609802
  59.2271546  94.5152071  98.2535689  58.4894303  94.0029457  98.5845932
  59.4798320  94.0752453  97.4418966  58.7271566 105.4236582  97.9584840
  59.0194540 105.9841639  97.2397205  59.2370187 105.7165143  98.7137999
  59.3283174  87.2928323  98.8477458  59.6342050  86.4325686  98.5603374
  60.0535778  87.8845943  98.6476452  45.6207530  97.6959010  97.2359056
  45.4231929  97.1028370  96.5110123  45.0654194  97.3911220  97.9534995
  53.6004253  97.5882116  99.3553649  53.6552863  96.6355952  99.2796126
  52.7895455  97.7441555  99.8394948  54.7495447 101.5162239  90.5931933
  54.3114877 100.7998098  90.1337570  55.4905888 101.7438354  90.0317024
  51.5396613  96.2059176  97.1144028  50.7264479  96.5053346  97.5209221
  52.0355607  95.8114865  97.8318511  53.6905191 106.2016933  99.0478293
  53.6481370 106.4277779  98.1186825  54.6067890 105.9680307  99.1964094
  57.1370825  96.6701000 105.9458922  57.4920213  96.8972473 106.8053388
  57.7842956  97.0019377 105.3236178  62.8668562  99.7919436  96.6508251
  62.7286460  99.9821032  95.7229441  62.5104781 100.5538819  97.1076302
  51.0310688  93.7777531 102.7305263  51.6710067  93.6366290 102.0328227
  50.1988219  93.4912045 102.3543865  62.8937941 101.8595963 101.6619523
  63.3274448 101.7671252 102.5102577  63.6069522 101.8353464 101.0239539
  51.8070992 103.0779962  98.8440256  52.6011590 102.5830282  98.6422831
  51.0962684 102.5497825  98.4807961  56.6265836 105.4598057 103.1952623
  56.6802859 106.0288994 103.9630339  55.7580618 105.6299942 102.8306661
  48.1153755  97.2223043  94.9200008  47.1851343  97.1607499  95.1369971
  48.2111227  96.6998996  94.1236650  48.0339304  93.7477856  97.5078250
  48.2946122  94.6623190  97.3987411  48.8556477  93.2802299  97.6574863
  49.5064230  95.1615613 104.6777075  50.1787283  94.9532976 104.0289724
  48.6794016  94.9637699 104.2382307  63.7553491 101.9019664 104.1952408
  63.9489381 102.8065474 104.4411683  63.6554109 101.4427083 105.0290993
  55.4089802  91.7877554 106.6942736  54.7617717  92.4867504 106.6007212
  56.1790817  92.2213698 107.0618984  58.8168600 102.0526407 109.7693289
  58.6654106 101.8236958 108.8523372  58.8073279 103.0097008 109.7824634
  55.5853936  99.6258319 104.7539555  56.5145996  99.7769479 104.5808523
  55.1644966  99.7142340 103.8988202  54.3842268 103.6508984 102.5238093
  54.2453354 103.2827768 103.3964031  53.5956864 104.1656623 102.3522051
  54.9790420 108.7518080  93.8663629  55.1542176 108.2806123  94.6809252
  54.2923208 109.3783846  94.0944890  55.9347483 103.0290586  99.9126931
  55.5997316 102.9891356 100.8084581  55.4351429 102.3635302  99.4397341
  49.9091727  98.4358216 105.4379512  49.7711525  97.7038455 106.0391051
  50.8196650  98.3467117 105.1563700  58.8706675 100.3746621  90.1863990
  58.2535845  99.6493449  90.0897043  58.4023163 101.1355981  89.8431065
  52.5374028  98.1478176 104.9263191  53.2473646  97.5071368 104.8849810
  52.4943336  98.3991071 105.8489372  60.5260806 105.0845529 107.8469771
  60.4673353 104.4004749 107.1800354  60.9280325 105.8264519 107.3950397
  51.2502962  95.1343394 106.7458831  50.7140319  94.6834132 107.3980427
  50.6619670  95.2689302 106.0029295  49.5451505 111.9007443 100.6403490
  49.7848103 112.5325967 101.3182508  48.7020702 111.5495483 100.9268849
  50.6605221  94.5932045  89.3085295  49.7834687  94.4720846  88.9447541
  51.1362974  93.8018123  89.0564183  60.5278214 103.0485113 106.0783750
  59.6404992 102.7111035 106.2010149  61.0976765 102.3168144 106.3152516
  42.1807361  99.3809205  99.4026802  42.8678401  99.0670935  98.8147817
  42.0255489 100.2850569  99.1294053  46.9842083  94.2699401 103.8311825
  46.9000272  93.6625071 103.0962235  46.1624789  94.7608420 103.8321322
  54.0579367 107.7086565 103.0444994  53.9849539 108.5141537 103.5564298
  53.6156760 107.9078531 102.2193015  53.8469147 106.9458335  96.5547815
  53.0636669 107.4880016  96.6486040  54.5461892 107.4632315  96.9542056
  57.1565797  92.7552965  99.1982020  57.6534496  92.0022927  98.8783091
  56.3852778  92.7917282  98.6325230  65.0095554  98.4593330 100.8400312
  64.9985430  99.3418046 100.4694245  64.1412934  98.1064881 100.6454849
  56.5178051 107.6073399 105.2003152  57.2306023 108.2420864 105.1279054
  56.0268079 107.7037265 104.3843154  58.2395577 101.5124652  96.7720444
  57.3051856 101.6326115  96.6025148  58.4172246 100.6097119  96.5080454
  53.7400766  94.8970348  98.9253705  53.3698553  94.3441388  99.6134611
  54.2359858  94.2928481  98.3728705  61.6268129  97.3541971  97.3070478
  62.0928581  98.1869963  97.2330781  62.0775629  96.8886953  98.0115737
  51.5689964 105.3567843 106.0208723  52.2699424 105.9904326 106.1738117
  51.0985079 105.6982574 105.2604362  59.6944360 103.6985793  94.3056630
  59.9704204 103.5842387  95.2150504  58.8248859 103.3003278  94.2668803
  59.5984792  89.7222558 101.3461379  58.6847871  89.9526785 101.5143586
  60.0277893  89.8061002 102.1975412  59.3691250  97.9112450 103.8461273
  58.7162700  98.1588358 103.1913726  59.7471630  97.0976589 103.5123751
  56.3298424 107.9472144  97.9489444  56.5120818 107.1293799  98.4117196
  57.1531410 108.1639836  97.5114334  56.6640589 106.8740329  95.2104492
  57.1928356 106.3632783  94.5974654  56.9268809 106.5582859  96.0750025
  55.4178823  98.6532261 110.3327310  54.7419460  98.5526391 111.0029686
  56.2406457  98.4971475 110.7963308  47.1657682 104.8904198 102.9539826
  47.7511119 104.1447886 103.0867730  46.9682521 105.2008155 103.8376490
  50.0196337 107.9255445  97.9702268  49.3506713 108.4101573  97.4866308
  49.8809207 108.1724666  98.8845647  41.7575337  97.4609798 101.6744269
  41.7959436  96.9273389 102.4681387  41.2515630  96.9345004 101.0555246
  54.1601606 109.9599189 104.5684926  54.7119914 110.1230810 105.3334012
  54.5007799 110.5503627 103.8964951  49.1366099  92.3074339 105.1706811
  49.2007426  93.1689170 104.7584209  49.0733219  91.6948340 104.4379170
  48.6118372  94.3797471 108.8179845  49.2390411  93.9974548 109.4317370
  47.7546291  94.1611673 109.1835538  45.3883914  96.1873900  94.7498200
  45.6837356  95.2784579  94.6965254  44.4871950  96.1661640  94.4279203
  57.2969993 107.9081164 101.5548609  57.1721133 107.1070904 101.0459554
  57.9549084 108.4027358 101.0662579  48.9178161  94.2629897 100.7325749
  48.1964747  94.8765865 100.5933222  49.7071417  94.7987662 100.6542395
  59.3604902 105.7090184 103.1828159  58.4135237 105.5895536 103.1106485
  59.7087675 104.8212682 103.2654420  51.7204475  91.5984323 107.0066401
  52.2438877  91.8446620 107.7692710  51.5016808  92.4304358 106.5869538
  47.1171756  93.8687998  94.8737525  46.7884462  92.9885377  94.6912631
  47.4711127  93.8135667  95.7613915  56.3651335 105.5042901  99.3832511
  56.2176297 104.5759608  99.5640081  57.1904828 105.5262991  98.8989586
  50.2313579  94.1560968  95.2413003  50.5709652  94.6846889  94.5191611
  50.6785700  94.4941374  96.0171570  59.9685457 106.3271459 100.4697384
  60.8932004 106.1214321 100.3321835  59.8000760 106.0787861 101.3786725
  52.9257020  92.5398018 104.6916071  52.5853840  91.7405832 105.0936751
  52.2196026  92.8399729 104.1192904  53.5773492  89.6247331 103.1443394
  54.3999561  89.1507809 103.0222284  53.8211555  90.4037815 103.6442080
  52.2181726  92.6535589  93.4406296  52.9390089  93.0316842  92.9370013
  51.5947030  93.3724466  93.5441274  56.3612849  93.3580738  94.3764628
  56.5776464  94.2405376  94.0753456  55.8806916  92.9666952  93.6470270
  51.1012071  96.3166452 100.9535373  50.9556651  96.6306755 101.8459654
  50.6237274  96.9351352 100.4006271  52.9608453  93.3069000 101.0016262
  52.9470022  92.4110093 100.6648560  53.6780882  93.3139663 101.6354548
  54.8134584  93.7406340 103.0469390  54.5552362  94.6623410 103.0453720
  54.2819625  93.3436774 103.7369854  59.7580773 106.8457127  95.8259475
  59.9317651 106.2803549  95.0733328  60.2509664 107.6458022  95.6438965
  45.5757733  98.8571796 103.8923034  45.0311201  99.6331604 104.0243308
  46.4537083  99.2042600 103.7342155  52.3645349  92.1883380  96.2703832
  52.4861261  91.2600026  96.4694720  52.0747392  92.2022066  95.3582148
  55.2336540  89.8738290  99.4070552  55.2558237  89.9377623  98.4522532
  55.6504599  89.0342799  99.6011058  65.6120164  99.6093550  97.4449775
  66.0551310  98.8600875  97.0468898  64.7346674  99.6003686  97.0623507
  60.7455945 106.1623891  92.9256373  61.4406850 106.7830584  93.1443688
  61.0879096 105.3119242  93.2008751  46.3623755  97.9841692 106.7853191
  45.6205491  98.1324328 107.3717821  46.0416499  98.2449958 105.9219940
  62.6447369 103.6123597  94.4543704  63.1698693 103.9510870  93.7293024
  62.5569721 102.6770612  94.2706839  54.3067417 107.5257670 106.5833581
  54.6154544 107.2806817 107.4556280  55.1042899 107.7304309 106.0952451
  54.3288029 109.6795580  98.8138957  53.8893020 109.1871959  99.5071814
  55.0796146 109.1368548  98.5731033  46.8080368 105.8707121  98.8163585
  47.6338388 105.5710893  98.4362229  46.4574420 105.1014743  99.2653374
  51.7761901 105.2233589 100.8861259  51.1541911 104.5604294 100.5863487
  52.4466768 105.2494721 100.2034907  45.0088973 103.7893447  99.7752519
  44.1720882 103.3615622  99.5936520  44.9812619 103.9825891 100.7123310
  51.8486429  93.7015377 110.4793765  51.8974584  94.5777500 110.0971535
  52.3908943  93.1592770 109.9065408  62.4539150 101.0948967 107.0727631
  62.5037155 100.9298974 108.0143153  62.3453073 100.2276226 106.6825511
  51.3375408 103.7737512  94.3619720  51.4863529 104.4572977  93.7086392
  52.1441852 103.7542603  94.8769175  59.7442912  97.0779895 108.3886937
  60.6452775  96.9386360 108.0970935  59.8190887  97.2434350 109.3285115
  54.0785717  94.4546750 107.2340124  53.2089027  94.7480316 106.9622712
  54.3145198  95.0387195 107.9547387  65.1553029 101.0798788  99.8372222
  65.9899920 101.5188592 100.0009783  65.2912158 100.6037441  99.0180468
  62.2044535  98.6378523 105.7849710  62.6798656  98.8306169 104.9768562
  61.2810100  98.6937709 105.5393094  49.0928041  99.8002690  95.3680788
  48.8474083  98.8965020  95.5660999  49.2623956  99.8019841  94.4260266
  56.7824751  90.6726366 104.7505544  57.3006695  91.4087393 104.4252033
  56.4279884  90.9790360 105.5852303  48.3623689  95.5331048  92.8666950
  47.6692934  95.6075403  92.2106986  48.1175441  94.7691391  93.3888467
  57.0337345  87.0926649 100.2706441  57.3139099  86.4249838 100.8966867
  57.8187952  87.2855745  99.7581105  54.8370814 106.2685643  91.8331467
  54.2644781 106.8875830  91.3801939  55.4103608 106.8185005  92.3671389
  60.9046204  95.5144283 104.0178016  61.8563627  95.6142381 104.0390240
  60.7349654  94.7222552 104.5276100  58.9260583  92.5999866 104.2037417
  58.3310515  92.8804879 103.5083905  58.6410280  93.0893767 104.9754158
  58.0568074 106.5522793  92.9640049  58.9898747 106.4868355  93.1672925
  57.9691287 107.3879060  92.5054582  60.6856090 105.8688663  89.9243997
  60.6069722 105.5348527  90.8179755  61.5065757 106.3610431  89.9235469
  63.3834282  98.7350403 103.1320315  63.3510602  97.7966403 103.3179999
  63.9934905  98.8134439 102.3986140  55.2217612  97.6046456  89.1747519
  56.1676717  97.4752664  89.2435938  54.8431857  96.8661118  89.6516948
  63.5328770  95.5261446 103.1778599  63.0167819  94.7419903 102.9908528
  64.4168719  95.1980163 103.3425118  61.1939497  89.2702462  99.1374411
  60.9964318  88.9617550 100.0217743  61.8039203  89.9964101  99.2672341
  69.2010831  99.7966410 102.2726352  69.9314220  99.5351698 102.8334056
  68.5917777  99.0595131 102.3128420  67.2826129  97.9374272 102.8700803
  66.5559292  97.8030237 102.2617295  66.8673415  98.2451101 103.6757521
  55.1056305 101.6564202 110.6348176  56.0259314 101.8342801 110.8288223
  55.0705888 100.7120247 110.4827876  53.4060530  95.5296432  89.1102405
  52.4991985  95.2329545  89.1865118  53.6836511  95.2326250  88.2436691
  44.3238470  96.8502795  99.5601451  44.0041254  95.9968104  99.2675825
  43.7771898  97.0651374 100.3159418  48.1018377  99.5665236 103.2770958
  48.3204387 100.4982344 103.2958991  48.5144151  99.2073211 104.0625761
  55.0222595  90.0733322  95.2646646  54.2123324  89.7280407  95.6401892
  55.7107012  89.7640866  95.8534258  56.9513144  89.1511369  96.8870943
  57.5044182  89.5706822  97.5460966  57.1883230  88.2247117  96.9293899
  52.9746243  95.1398442 112.6673707  52.8742970  96.0892799 112.5985798
  52.7567785  94.8116681 111.7949777  52.1759314  92.3883367  89.2514384
  53.0378478  92.7138266  89.5110201  52.3609658  91.6014863  88.7387450
  44.1926730 100.4705707 101.5294573  43.4990201 100.0559660 101.0164527
  44.9399721 100.5126243 100.9327992  60.3291951  91.2611894  96.3949607
  59.7490620  91.9196698  96.0127659  60.0627883  90.4389238  95.9837024
  58.7795517  90.6616951  98.5970927  59.2795295  90.7733486  97.7885246
  59.4231125  90.3578004  99.2371736  52.8377513  98.5695581 111.4838768
  52.3544595  99.3695941 111.6902657  52.9238452  98.5803526 110.5306212
  46.1063472 100.4023961  99.4060588  46.0834161 100.5011648  98.4542471
  46.4164109 101.2489112  99.7277754  48.7650850 102.4600116 103.5207202
  49.7194104 102.4284058 103.4537134  48.5663374 101.9990740 104.3357428
  49.3550232 101.0301232 106.0878000  50.1743121 101.5245310 106.1112837
  49.6287040 100.1133200 106.0595567  59.1116829  93.4211984  95.4505955
  58.2242684  93.7061635  95.2326150  59.5270818  93.2605748  94.6033232
  62.4631365  93.4458505  99.1660294  63.2391755  93.9354958  99.4384911
  61.7379499  93.8716559  99.6232164  64.9003923  94.1586124 100.2234235
  65.4948414  93.9181860  99.5127543  64.9730507  93.4393255 100.8507771
  47.1201079 108.0019735 100.5377400  46.9855547 107.2420136  99.9715398
  46.7033141 108.7260635 100.0706189  58.2560042 103.1856659  89.5453975
  58.9595892 103.3906661  90.1611631  57.5322691 103.7533421  89.8103059
  59.0857852  98.9366520  95.6656245  59.0293054  99.3935071  94.8263878
  59.6386195  98.1757205  95.4879088  62.8962658  94.7256252  96.4906365
  62.6399593  94.3252888  97.3214573  62.2715526  95.4400046  96.3656504
  67.2074996  97.4652325  98.9977656  66.6474554  97.5345514  99.7709218
  66.6018500  97.2893310  98.2777152  50.2770205 108.8989052 100.7495843
  50.1602589 109.8434485 100.6474533  49.4562651 108.5962614 101.1381642
  60.1646740 103.6239188  91.5952435  60.9992343 103.1920386  91.4129910
  60.0031082 103.4521202  92.5229330  59.8192632 100.1271301  92.9608775
  59.7641436  99.9615573  92.0197219  59.1938687 100.8347334  93.1170964
  44.6085147  95.3639366 106.7870197  45.2544010  94.8538320 107.2757422
  44.4002298  96.1008047 107.3613622  53.1288757  89.6279410  92.5394093
  53.1167427  90.5721250  92.6962364  54.0212179  89.4449556  92.2453554
  51.3024719 109.5517314 103.9651771  52.2051966 109.5840924 104.2818266
  51.0762089 108.6217765 103.9798107  53.0578321 108.3048301 100.6261850
  52.1073952 108.3050162 100.5126222  53.3610807 107.5581035 100.1097884
  56.9440877  86.2222187  96.7940030  56.1773272  85.6680674  96.9396712
  57.3551582  86.2944056  97.6554181  48.9482638  92.5106983 110.8845211
  49.8114099  92.1543788 111.0948536  48.3748048  92.1720878 111.5720615
  61.4607537 115.9471744  97.6166028  60.8972402 115.8561681  96.8482315
  61.3459932 115.1271648  98.0968520  59.0071969 117.4422935 100.4550248
  59.7993260 117.1013760 100.0396547  59.2468619 117.5517910 101.3752401
  67.0407095 119.6142711  92.9280493  66.3895075 120.1996792  92.5414506
  67.8351458 120.1448906  92.9875530  60.9662722 116.7031848  93.3267627
  61.7393598 116.1560836  93.1880503  61.3188121 117.5676098  93.5382088
  63.3029000 112.8624515  90.9586077  63.5554521 112.3406036  90.1969540
  62.3653559 112.6990660  91.0612760  68.3472283 111.8660293  98.7660820
  69.1335372 111.4479716  98.4151237  68.6110987 112.7706385  98.9342468
  68.5182360 117.3033143  93.4649477  67.8828193 117.3767770  94.1770381
  68.1879767 117.8926742  92.7868556  63.0225289 114.7652621  93.1610452
  62.9061547 114.0897524  93.8291536  63.1327549 114.2784994  92.3442605
  65.3656830 114.2262768  96.8657141  65.0015037 113.6993389  97.5770062
  66.2223946 113.8361237  96.6923626  65.0062317 109.2552667  91.8618489
  65.1736719 110.1232904  92.2288961  64.8159486 109.4179949  90.9379779
  61.2150132 114.1683443  99.5621024  60.2900628 114.0359657  99.7698716
  61.4634545 114.9477662 100.0590967  64.9851538 111.7110325  92.8465156
  64.8651163 112.1567376  93.6850637  64.2904126 112.0595643  92.2878694
  58.5758943 113.8116717 100.3964813  58.7051324 114.0651196 101.3104225
  57.8956394 114.4044425 100.0769468  70.6836604 112.1831798  93.6745490
  71.5954460 112.4159185  93.4993188  70.1746251 112.7668842  93.1120569
  68.0272579 108.3589834 101.9235351  67.1657058 108.6571088 102.2152089
  68.0535013 108.5760233 100.9916384  64.8434148 116.9032025  98.3309157
  65.3072494 117.1819728  97.5413779  64.5790946 116.0015469  98.1482248
  63.7803034 113.0255177  95.1398722  64.4827078 113.4776221  95.6072648
  63.4483663 112.3838996  95.7678615  57.5228368 111.2838730 100.4415856
  56.7327422 111.5396258  99.9655966  58.0139616 112.0987067 100.5467896
  59.4743114 111.6483309  97.3999332  58.6774277 111.7602003  97.9182828
  59.2468706 111.9869961  96.5340223  55.8066071 111.5369220 102.8730846
  56.0574110 112.4216230 103.1388422  56.3425620 111.3573822 102.1005938
  65.0196799 119.8396120  95.2160827  64.8842474 120.6847655  95.6445675
  65.5606611 120.0415397  94.4526761  58.4726196 117.3571558  95.7888752
  58.9850717 118.1514808  95.9394317  59.1248909 116.6597848  95.7222354
  60.2821081 120.4737314  97.8711506  60.4587709 121.3955279  97.6832489
  61.0777914 120.1595733  98.3005885  68.3689262 103.3626681 103.7459721
  68.0253532 104.2528323 103.6698831  68.7368225 103.1728339 102.8829306
  56.4375113 115.6860212  96.5648323  57.2750335 116.0957220  96.3482031
  56.6153381 114.7459654  96.5348517  68.3339545 113.3535293  92.2532156
  67.8186169 114.1239897  92.4920543  68.0616854 112.6800429  92.8765217
  65.9186656 108.1984993  97.3117394  65.0628253 107.8091844  97.1323033
  66.3313608 108.2776954  96.4517180  67.4485803 105.7331337 101.7108954
  66.9450598 105.6961472 100.8976759  67.7416410 106.6424079 101.7705611
  63.6928689 105.8170066 100.7175136  64.5581685 105.6212875 100.3581025
  63.7606198 105.5880418 101.6444492  73.3073819 116.1067647  94.1885329
  72.5303262 115.7678807  93.7440491  73.9865300 116.1120270  93.5140294
  68.1225848 111.2262385  94.0791937  67.8175984 111.5408534  94.9302080
  69.0756290 111.3043805  94.1219270  66.5672280 117.3852608  95.7284891
  66.0393642 116.6505368  95.4158128  66.0659783 118.1627284  95.4824859
  61.2991008 108.0472274  98.0891503  61.8734760 107.8247456  97.3564695
  61.8861990 108.1160969  98.8420104  61.6260595 110.0776735  92.1087388
  60.7897907 110.4151422  92.4296663  61.4865365 109.9425715  91.1714525
  63.6013675 104.9213523  96.8166572  62.9478088 104.6062540  96.1923187
  63.5594150 104.2989264  97.5426395  64.7124880 115.2032818  88.7319864
  63.8051942 114.9722072  88.9311013  65.2095912 114.4070437  88.9193846
  67.6192959 123.9130325  91.6516550  66.9454658 124.2162022  92.2601508
  68.0058781 124.7159406  91.3022007  66.8351416 111.4095457 101.1414220
  65.9173977 111.6310404 100.9835908  67.2511559 111.4841767 100.2825927
  67.6186464 112.8086872  96.2716900  68.3658283 113.3208270  95.9624022
  67.8878053 112.4870925  97.1321293  65.8913114 115.3045413  93.2543854
  64.9824333 115.0204446  93.3516324  65.9208198 115.7244492  92.3947161
  70.0665301 109.8443989  98.2535689  69.3288058 109.3321375  98.5845932
  70.3192074 109.4044370  97.4418966  70.1676928 102.6220241  98.8477458
  70.4735805 101.7617604  98.5603374  70.8929533 103.2137861  98.6476452
  56.4601284 113.0250927  97.2359056  56.2625684 112.4320288  96.5110123
  55.9047948 112.7203137  97.9534995  64.4398008 112.9174034  99.3553649
  64.4946618 111.9647870  99.2796126  63.6289210 113.0733473  99.8394948
  65.5889202 116.8454157  90.5931933  65.1508632 116.1290016  90.1337570
  66.3299642 117.0730272  90.0317024  62.3790368 111.5351093  97.1144028
  61.5658233 111.8345264  97.5209221  62.8749362 111.1406782  97.8318511
  61.8704443 109.1069449 102.7305263  62.5103822 108.9658208 102.0328227
  61.0381973 108.8203962 102.3543865  62.6464746 118.4071879  98.8440256
  63.4405345 117.9122200  98.6422831  61.9356439 117.8789743  98.4807961
  58.9547510 112.5514961  94.9200008  58.0245098 112.4899417  95.1369971
  59.0504982 112.0290914  94.1236650  58.8733059 109.0769774  97.5078250
  59.1339876 109.9915107  97.3987411  59.6950231 108.6094217  97.6574863
  60.3457984 110.4907531 104.6777075  61.0181038 110.2824893 104.0289724
  59.5187771 110.2929617 104.2382307  65.8184174 124.0809998  93.8663629
  65.9935930 123.6098041  94.6809252  65.1316962 124.7075764  94.0944890
  69.7100429 115.7038538  90.1863990  69.0929600 114.9785367  90.0897043
  69.2416918 116.4647899  89.8431065  61.4998975 109.9223963  89.3085295
  60.6228441 109.8012764  88.9447541  61.9756728 109.1310041  89.0564183
  53.0201115 114.7101122  99.4026802  53.7072155 114.3962852  98.8147817
  52.8649244 115.6142487  99.1294053  57.8235837 109.5991319 103.8311825
  57.7394026 108.9916989 103.0962235  57.0018544 110.0900337 103.8321322
  67.9959551 108.0844883  99.1982020  68.4928251 107.3314845  98.8783091
  67.2246533 108.1209199  98.6325230  69.0789332 116.8416570  96.7720444
  68.1445611 116.9618032  96.6025148  69.2566000 115.9389037  96.5080454
  64.5794520 110.2262266  98.9253705  64.2092308 109.6733306  99.6134611
  65.0753612 109.6220399  98.3728705  72.4661883 112.6833889  97.3070478
  72.9322336 113.5161881  97.2330781  72.9169384 112.2178871  98.0115737
  70.5338114 119.0277710  94.3056630  70.8097958 118.9134305  95.2150504
  69.6642613 118.6295195  94.2668803  70.4378546 105.0514476 101.3461379
  69.5241626 105.2818703 101.5143586  70.8671648 105.1352920 102.1975412
  52.5969091 112.7901716 101.6744269  52.6353191 112.2565306 102.4681387
  52.0909384 112.2636921 101.0555246  59.9759854 107.6366256 105.1706811
  60.0401180 108.4981087 104.7584209  59.9126974 107.0240258 104.4379170
  56.2277669 111.5165818  94.7498200  56.5231110 110.6076496  94.6965254
  55.3265705 111.4953557  94.4279203  59.7571916 109.5921815 100.7325749
  59.0358502 110.2057782 100.5933222  60.5465172 110.1279579 100.6542395
  57.9565511 109.1979916  94.8737525  57.6278217 108.3177295  94.6912631
  58.3104881 109.1427584  95.7613915  61.0707334 109.4852885  95.2413003
  61.4103406 110.0138807  94.5191611  61.5179454 109.8233292  96.0171570
  63.7650775 107.8689936 104.6916071  63.4247595 107.0697749 105.0936751
  63.0589781 108.1691647 104.1192904  64.4167246 104.9539249 103.1443394
  65.2393316 104.4799727 103.0222284  64.6605310 105.7329732 103.6442080
  63.0575481 107.9827507  93.4406296  63.7783843 108.3608760  92.9370013
  62.4340785 108.7016384  93.5441274  67.2006604 108.6872656  94.3764628
  67.4170218 109.5697294  94.0753456  66.7200671 108.2958869  93.6470270
  61.9405825 111.6458369 100.9535373  61.7950406 111.9598672 101.8459654
  61.4631029 112.2643270 100.4006271  63.8002208 108.6360917 101.0016262
  63.7863777 107.7402011 100.6648560  64.5174636 108.6431581 101.6354548
  65.6528339 109.0698257 103.0469390  65.3946117 109.9915328 103.0453720
  65.1213379 108.6728692 103.7369854  56.4151487 114.1863714 103.8923034
  55.8704955 114.9623522 104.0243308  57.2930837 114.5334518 103.7342155
  63.2039104 107.5175297  96.2703832  63.3255015 106.5891944  96.4694720
  62.9141146 107.5313983  95.3582148  66.0730294 105.2030208  99.4070552
  66.0951991 105.2669541  98.4522532  66.4898353 104.3634717  99.6011058
  71.5849700 121.4915809  92.9256373  72.2800605 122.1122502  93.1443688
  71.9272850 120.6411160  93.2008751  73.4841123 118.9415514  94.4543704
  74.0092447 119.2802787  93.7293024  73.3963476 118.0062530  94.2706839
  57.6474123 121.1999039  98.8163585  58.4732143 120.9002810  98.4362229
  57.2968175 120.4306661  99.2653374  55.8482728 119.1185365  99.7752519
  55.0114636 118.6907539  99.5936520  55.8206373 119.3117808 100.7123310
  62.1769163 119.1029430  94.3619720  62.3257283 119.7864895  93.7086392
  62.9835606 119.0834520  94.8769175  59.9321796 115.1294608  95.3680788
  59.6867838 114.2256938  95.5660999  60.1017710 115.1311758  94.4260266
  59.2017443 110.8622965  92.8666950  58.5086688 110.9367320  92.2106986
  58.9569195 110.0983309  93.3888467  67.8731100 102.4218567 100.2706441
  68.1532854 101.7541756 100.8966867  68.6581707 102.6147662  99.7581105
  65.6764568 121.5977561  91.8331467  65.1038535 122.2167748  91.3801939
  66.2497362 122.1476922  92.3671389  68.8961828 121.8814711  92.9640049
  69.8292501 121.8160272  93.1672925  68.8085041 122.7170978  92.5054582
  71.5249845 121.1980581  89.9243997  71.4463476 120.8640445  90.8179755
  72.3459512 121.6902349  89.9235469  66.0611367 112.9338373  89.1747519
  67.0070472 112.8044581  89.2435938  65.6825612 112.1953035  89.6516948
  72.0333251 104.5994379  99.1374411  71.8358073 104.2909468 100.0217743
  72.6432957 105.3256018  99.2672341  64.2454284 110.8588350  89.1102405
  63.3385739 110.5621462  89.1865118  64.5230265 110.5618168  88.2436691
  55.1632224 112.1794713  99.5601451  54.8435009 111.3260021  99.2675825
  54.6165653 112.3943291 100.3159418  65.8616350 105.4025239  95.2646646
  65.0517078 105.0572324  95.6401892  66.5500767 105.0932783  95.8534258
  67.7906898 104.4803286  96.8870943  68.3437937 104.8998740  97.5460966
  68.0276984 103.5539034  96.9293899  63.0153069 107.7175285  89.2514384
  63.8772233 108.0430183  89.5110201  63.2003413 106.9306781  88.7387450
  55.0320484 115.7997625 101.5294573  54.3383956 115.3851577 101.0164527
  55.7793475 115.8418161 100.9327992  71.1685705 106.5903811  96.3949607
  70.5884374 107.2488615  96.0127659  70.9021638 105.7681156  95.9837024
  69.6189272 105.9908869  98.5970927  70.1189050 106.1025404  97.7885246
  70.2624879 105.6869922  99.2371736  56.9457227 115.7315878  99.4060588
  56.9227915 115.8303566  98.4542471  57.2557863 116.5781029  99.7277754
  69.9510583 108.7503902  95.4505955  69.0636438 109.0353552  95.2326150
  70.3664572 108.5897665  94.6033232  73.3025119 108.7750423  99.1660294
  74.0785509 109.2646875  99.4384911  72.5773253 109.2008477  99.6232164
  69.0953797 118.5148576  89.5453975  69.7989647 118.7198579  90.1611631
  68.3716445 119.0825338  89.8103059  69.9251607 114.2658438  95.6656245
  69.8686808 114.7226989  94.8263878  70.4779949 113.5049122  95.4879088
  73.7356413 110.0548170  96.4906365  73.4793347 109.6544805  97.3214573
  73.1109281 110.7691964  96.3656504  71.0040494 118.9531106  91.5952435
  71.8386098 118.5212304  91.4129910  70.8424837 118.7813119  92.5229330
  70.6586386 115.4563219  92.9608775  70.6035190 115.2907490  92.0197219
  70.0332442 116.1639252  93.1170964  63.9682512 104.9571328  92.5394093
  63.9561182 105.9013168  92.6962364  64.8605934 104.7741473  92.2453554
  67.7834631 101.5514105  96.7940030  67.0167027 100.9972591  96.9396712
  68.1945336 101.6235973  97.6554181  72.3392730 125.2515880  89.3085295
  71.4622196 125.1304681  88.9447541  72.8150483 124.4601959  89.0564183
  75.0848039 126.1880267  89.1102405  74.1779494 125.8913380  89.1865118
  75.3624020 125.8910086  88.2436691  73.8546823 123.0467203  89.2514384
  74.7165987 123.3722101  89.5110201  74.0397167 122.2598699  88.7387450
  74.8076266 120.2863246  92.5394093  74.7954936 121.2305086  92.6962364
  75.6999688 120.1033391  92.2453554  14.5962243  14.5011373  88.4152919
  15.2340653  14.3818121  87.7116259  14.4783086  15.4492217  88.4740871
   7.2638765  16.3074278  84.3411334   6.7003631  16.2164215  83.5727622
   7.1491160  15.4874182  84.8213827  12.8438324  19.9745246  79.6525799
  12.1926304  20.5599326  79.2659813  13.6382687  20.5051440  79.7120837
   6.7693951  17.0634383  80.0512934   7.5424827  16.5163370  79.9125809
   7.1219350  17.9278632  80.2627395   9.1060229  13.2227049  77.6831383
   9.3585750  12.7008570  76.9214846   8.1684788  13.0593194  77.7858067
  14.1503512  12.2262827  85.4906127  14.9366601  11.8082250  85.1396544
  14.4142216  13.1308919  85.6587775  14.3213589  17.6635677  80.1894783
  13.6859422  17.7370304  80.9015688  13.9910996  18.2529276  79.5113863
  19.5511939  12.1638060  86.3939105  20.2837111  11.5937277  86.6276935
  18.7951295  11.7759661  86.8345611   8.8256518  15.1255155  79.8855758
   8.7092776  14.4500058  80.5536843   8.9358778  14.6387529  79.0687911
  11.1688059  14.5865302  83.5902448  10.8046266  14.0595923  84.3015369
  12.0255175  14.1963771  83.4168933  10.7882767  12.0712859  79.5710463
  10.6682392  12.5169910  80.4095943  10.0935355  12.4198177  79.0124001
   8.5489659  24.8416501  83.2200594   8.4713688  25.7924326  83.2989075
   7.9451302  24.4962373  83.8775520  16.4867833  12.5434332  80.3990797
  17.3985689  12.7761719  80.2238495  15.9777480  13.1271376  79.8365876
  15.0937415  17.5260151  87.7904378  14.4646278  17.6905865  87.0880446
  14.7063077  17.9401760  88.5615342  18.9726647  18.4614589  85.1448742
  18.2877685  18.8413490  84.5945776  19.0570496  19.0709915  85.8780690
  10.6465377  17.2634559  85.0554464  11.1103723  17.5422262  84.2659086
  10.3822175  16.3618003  84.8727554   9.5834263  13.3857711  81.8644029
  10.2858306  13.8378755  82.3317955   9.2514892  12.7441530  82.4923922
  17.3423407  18.9846503  89.9166443  18.1640850  18.5826690  89.6349125
  17.3385809  18.8814737  90.8682559  25.4329400  15.3285251  86.2651415
  24.6793108  14.7592650  86.1095419  25.5676941  15.2947916  87.2122049
  10.8228028  20.1998654  81.9406134  10.6873702  21.0450190  82.3690982
  11.3637840  20.4017931  81.1772068   4.2757425  17.7174092  82.5134059
   4.7881946  18.5117342  82.6639624   4.9280138  17.0200382  82.4467660
   6.0852310  20.8339848  84.5956812   6.2618938  21.7557813  84.4077796
   6.8809143  20.5198267  85.0251192  14.1370774  13.7137827  78.9777463
  13.6217397  14.4842431  79.2165850  13.8648082  13.0402963  79.6010524
  19.1105048  16.4670181  80.9130636  18.3334491  16.1281341  80.4685798
  19.7896529  16.4722805  80.2385601  13.9257077  11.5864919  80.8037244
  13.6207213  11.9011068  81.6547387  14.8787519  11.6646339  80.8464577
  12.3703509  17.7455142  82.4530198  11.8424871  17.0107902  82.1403435
  11.8691012  18.5229819  82.2070166  17.3496355  15.9404163  87.5697244
  16.6920029  16.6303424  87.6577373  18.1536754  16.3300595  87.9131230
  16.1601814  14.2948535  85.6201186  16.6733696  14.9278527  86.1222895
  16.8103038  13.6949731  85.2544546  10.5156109  15.5635352  75.4565171
   9.6083171  15.3324606  75.6556320  11.0127141  14.7672972  75.6439152
  13.4224188  24.2732860  78.3761857  12.7485887  24.5764556  78.9846815
  13.8090010  25.0761940  78.0267314  13.4217692  13.1689407  82.9962206
  14.1689511  13.6810804  82.6869329  13.6909282  12.8473459  83.8566600
  11.6944343  15.6647947  79.9789161  10.7855562  15.3806980  80.0761631
  11.7239426  16.0847026  79.1192468  16.9263610  19.2754537  83.7480328
  16.4725937  18.4345447  83.8045519  16.2957577  19.9115935  84.0855108
  15.8696530  10.2046523  84.9780996  15.1319286   9.6923909  85.3091238
  16.1223303   9.7646904  84.1664273  15.3696549  21.1131034  84.6830146
  15.6619524  21.6736091  83.9642512  15.8795170  21.4059595  85.4383306
  11.3920430  17.2056691  77.3177239  10.9539860  16.4892550  76.8582877
  12.1330871  17.4332806  76.7562331  10.3330174  21.8911385  85.7723600
  10.2906353  22.1172231  84.8432132  11.2492873  21.6574759  85.9209401
  19.5093545  15.4813888  83.3753558  19.3711444  15.6715484  82.4474747
  19.1529764  16.2433271  83.8321609  19.5362925  17.5490415  88.3864829
  19.9699431  17.4565704  89.2347883  20.2494505  17.5247915  87.7484845
   8.4495975  18.7674414  85.5685562   9.2436574  18.2724734  85.3668137
   7.7387668  18.2392277  85.2053268  13.2690820  21.1492509  89.9197930
  13.3227842  21.7183445  90.6875646  12.4005601  21.3194394  89.5551967
  20.3978474  17.5914116  90.9197715  20.5914364  18.4959926  91.1656990
  20.2979093  17.1321535  91.7536300  11.6215403  24.4412532  80.5908936
  11.7967159  23.9700575  81.4054559  10.9348191  25.0678298  80.8190197
  12.5772466  18.7185038  86.6372237  12.2422299  18.6785808  87.5329887
  12.0776412  18.0529754  86.1642648  15.5131658  16.0641073  76.9109297
  14.8960829  15.3387901  76.8142350  15.0448146  16.8250433  76.5676371
   6.1876488  27.5901895  87.3648796   6.4273087  28.2220419  88.0427815
   5.3445685  27.2389935  87.6514155  10.7004350  23.3981017  89.7690300
  10.6274522  24.2035989  90.2809605  10.2581743  23.5972983  88.9438322
  10.4894130  22.6352787  83.2793122   9.7061652  23.1774467  83.3731346
  11.1886875  23.1526767  83.6787363  21.6520537  14.1487782  87.5645619
  21.6410414  15.0312498  87.1939552  20.7837917  13.7959333  87.3700156
  13.1603034  23.2967851  91.9248459  13.8731006  23.9315316  91.8524360
  12.6693062  23.3931717  91.1088461  14.8820561  17.2019104  83.4965751
  13.9476839  17.3220566  83.3270455  15.0597229  16.2991571  83.2325760
  18.2693112  13.0436423  84.0315785  18.7353564  13.8764415  83.9576087
  18.7200613  12.5781405  84.7361043  16.3369343  19.3880245  81.0301937
  16.6129187  19.2736839  81.9395811  15.4673842  18.9897729  80.9914110
  12.9723407  23.6366595  84.6734750  13.1545802  22.8188251  85.1362503
  13.7956393  23.8534288  84.2359640  13.3065573  22.5634781  81.9349799
  13.8353339  22.0527235  81.3219961  13.5693792  22.2477311  82.7995332
   6.6621321  23.6149897  84.6947575   5.9931696  24.0996025  84.2111615
   6.5234190  23.8619118  85.6090953  10.8026589  25.6493641  91.2930233
  11.3544897  25.8125262  92.0579318  11.1432783  26.2398079  90.6210258
  13.9394977  23.5975616  88.2793915  13.8146116  22.7965356  87.7704861
  14.5974068  24.0921810  87.7907885  16.0029885  21.3984636  89.9073465
  15.0560220  21.2789988  89.8351792  16.3512658  20.5107134  89.9899727
  13.0076318  21.1937353  86.1077818  12.8601281  20.2654060  86.2885388
  13.8329812  21.2157443  85.6234893  16.6110440  22.0165911  87.1942690
  17.5356988  21.8108773  87.0567141  16.4425743  21.7682312  88.1032032
  16.4005756  22.5351579  82.5504782  16.5742634  21.9698001  81.7978634
  16.8934648  23.3352474  82.3684272  22.2545147  15.2988002  84.1695082
  22.6976293  14.5495327  83.7714205  21.3771658  15.2898138  83.7868814
  17.3880929  21.8518343  79.6501680  18.0831833  22.4725036  79.8688995
  17.7304079  21.0013694  79.9254058  19.2872352  19.3018049  81.1789011
  19.8123676  19.6405321  80.4538331  19.1994704  18.3665064  80.9952145
  10.9713013  25.3690032  85.5384264  10.5318003  24.8766411  86.2317121
  11.7221130  24.8263000  85.2976339   3.4505352  21.5601573  85.5408892
   4.2763372  21.2605345  85.1607536   3.0999404  20.7909195  85.9898681
   8.4186885  20.9128041  87.6106566   7.7966894  20.2498746  87.3108794
   9.0891752  20.9389173  86.9280213   7.9800392  19.4631964  81.0865026
   8.1288512  20.1467429  80.4331699   8.7866835  19.4437054  81.6014482
  21.7978012  16.7693240  86.5617529  22.6324904  17.2083044  86.7255089
  21.9337141  16.2931893  85.7425775   5.7353025  15.4897142  82.0926095
   5.4899067  14.5859472  82.2906305   5.9048939  15.4914292  81.1505573
  11.4795797  21.9580095  78.5576774  10.9069764  22.5770282  78.1047246
  12.0528591  22.5079457  79.0916696  14.6993057  22.2417245  79.6885356
  15.6323730  22.1762807  79.8918231  14.6116270  23.0773512  79.2299889
  17.3281074  21.5583115  76.6489303  17.2494705  21.2242979  77.5425061
  18.1490740  22.0504883  76.6480776  20.0259265  14.4244855  89.8565622
  19.9935585  13.4860855  90.0425306  20.6359888  14.5028891  89.1231447
  11.8642596  13.2940908  75.8992826  12.8101700  13.1647116  75.9681244
  11.4856841  12.5555569  76.3762254  25.8435815  15.4860861  88.9971659
  26.5739203  15.2246150  89.5579362  25.2342760  14.7489583  89.0373727
  23.9251112  13.6268724  89.5946110  23.1984275  13.4924689  88.9862602
  23.5098399  13.9345553  90.4002828  15.7541812   9.1106436  82.1751262
  14.8667667   9.3956087  81.9571457  16.1695801   8.9500199  81.3278539
  19.1056348   9.1352957  85.8905601  19.8816738   9.6249409  86.1630218
  18.3804482   9.5611011  86.3477471  21.5428907   9.8480576  86.9479542
  22.1373398   9.6076312  86.2372850  21.6155490   9.1287707  87.5753078
   3.7626062  23.6914187  87.2622707   3.6280530  22.9314588  86.6960705
   3.3458125  24.4155087  86.7951495  14.8985025  18.8751111  76.2699282
  15.6020876  19.0801113  76.8856937  14.1747674  19.4427873  76.5348365
  15.7282836  14.6260972  82.3901552  15.6718037  15.0829523  81.5509184
  16.2811178  13.8651657  82.2124395  19.5387642  10.4150704  83.2151671
  19.2824576  10.0147339  84.0459879  18.9140510  11.1294498  83.0901811
  23.8499979  13.1546777  85.7222963  23.2899537  13.2239966  86.4954525
  23.2443483  12.9787762  85.0022459   6.9195188  24.5883504  87.4741149
   6.8027572  25.5328937  87.3719839   6.0987635  24.2857066  87.8626948
  16.8071723  19.3133640  78.3197742  17.6417327  18.8814838  78.1375217
  16.6456066  19.1415654  79.2474636  16.4617615  15.8165753  79.6854081
  16.4066419  15.6510025  78.7442525  15.8363670  16.5241786  79.8416271
   7.9449702  25.2411766  90.6897078   8.8476949  25.2735376  91.0063573
   7.7187073  24.3112217  90.7043413   9.7003304  23.9942753  87.3507156
   8.7498935  23.9944614  87.2371528  10.0035791  23.2475487  86.8343191
  25.4355998  29.8303291  88.4152919  26.0734408  29.7110038  87.7116259
  25.3176841  30.7784135  88.4740871  22.2445704  29.7830719  88.3514443
  21.9064216  29.6671784  87.4634978  23.1135472  29.3821884  88.3315449
  18.1032520  31.6366196  84.3411334  17.5397385  31.5456132  83.5727622
  17.9884915  30.8166100  84.8213827  22.7265487  30.9365571  94.3100649
  22.7154128  30.5418369  93.4381152  22.8886127  30.2031643  94.9034420
  15.6496952  33.1317387  87.1795555  16.4418244  32.7908212  86.7641854
  15.8893602  33.2412362  88.0997708  23.6832079  35.3037163  79.6525799
  23.0320058  35.8891244  79.2659813  24.4776441  35.8343358  79.7120837
  17.6087706  32.3926300  80.0512934  18.3818582  31.8455287  79.9125809
  17.9613105  33.2570550  80.2627395  19.4472748  33.7202683  93.2579833
  19.1562614  34.6248313  93.1426499  20.0829733  33.7619210  93.9723902
  20.3728955  31.0979531  89.8481192  20.9692527  30.8735554  89.1338155
  20.4303927  30.3564277  90.4506640  19.9453984  28.5518966  77.6831383
  20.1979504  28.0300488  76.9214846  19.0078543  28.3885112  77.7858067
  24.9897266  27.5554745  85.4906127  25.7760356  27.1374168  85.1396544
  25.2535971  28.4600837  85.6587775  25.1607344  32.9927595  80.1894783
  24.5253177  33.0662222  80.9015688  24.8304750  33.5821194  79.5113863
  30.3905694  27.4929978  86.3939105  31.1230866  26.9229195  86.6276935
  29.6345049  27.1051579  86.8345611  19.6650272  30.4547072  79.8855758
  19.5486530  29.7791976  80.5536843  19.7752532  29.9679446  79.0687911
  22.0081813  29.9157220  83.5902448  21.6440021  29.3887841  84.3015369
  22.8648929  29.5255689  83.4168933  27.9131114  21.2051552  90.8533714
  27.5814439  22.0746963  90.6294929  27.3176727  20.8887836  91.5327744
  21.6487300  24.9447119  78.5863796  21.8161703  25.8127356  78.9534267
  21.4584469  25.1074401  77.6625085  24.4062633  33.4064098  90.2529626
  24.1063357  34.3089137  90.1445434  24.0613693  33.1396281  91.1050779
  17.8575115  29.8577895  86.2866331  16.9325611  29.7254109  86.4944023
  18.1059528  30.6372114  86.7836273  27.8059777  25.9246638  87.9327064
  26.8976655  25.8562047  87.6385825  27.7547373  26.4018583  88.7608889
  21.6276521  27.4004777  79.5710463  21.5076146  27.8461828  80.4095943
  20.9329110  27.7490094  79.0124001  15.2183926  29.5011169  87.1210120
  15.3476307  29.7545647  88.0349532  14.5381377  30.0938877  86.8014775
  19.3883413  40.1708419  83.2200594  19.3107443  41.1216244  83.2989075
  18.7845057  39.8254291  83.8775520  21.8800643  27.3436284  95.8761961
  21.1033977  27.9030204  95.8664826  22.5191206  27.8293067  96.3976831
  29.6721424  24.1263077  89.7104938  29.0295804  24.4195610  89.0644732
  29.1676352  24.0115997  90.5158134  27.3261587  27.8726250  80.3990797
  28.2379443  28.1053637  80.2238495  26.8171234  28.4563294  79.8365876
  20.1347015  30.1521737  95.4379928  20.8761700  30.6906781  95.1614752
  19.4284001  30.7788026  95.5951480  25.6102355  32.2950878  94.0352090
  26.0185711  31.8533288  93.2906722  24.8879616  31.7203505  94.2886282
  21.9633425  27.2323485  91.4085647  22.8094620  27.6562898  91.5520296
  21.9032063  26.5757109  92.1024210  25.9331170  32.8552068  87.7904378
  25.3040032  33.0197783  87.0880446  25.5456832  33.2693678  88.5615342
  29.8120402  33.7906506  85.1448742  29.1271440  34.1705408  84.5945776
  29.8964251  34.4001833  85.8780690  25.1132870  24.8927853  93.0666820
  24.8693802  25.6469913  92.5301096  25.3892801  25.2713200  93.9014067
  27.0671333  31.4366465  91.7444086  27.2788228  32.0798225  91.0678467
  27.0201081  30.6028782  91.2766016  24.6697562  24.0484286  88.6480658
  23.8082041  24.3465539  88.9397395  24.6959997  24.2654685  87.7161691
  21.4859131  32.5926476  85.0554464  21.9497477  32.8714179  84.2659086
  21.2215930  31.6909921  84.8727554  18.3783213  32.1397958  87.9934227
  18.9484570  32.5685226  87.3551711  18.9691324  31.8580543  88.6918412
  20.4228018  28.7149629  81.8644029  21.1252061  29.1670673  82.3317955
  20.0908646  28.0733448  82.4923922  18.8708379  27.3061385  96.2395238
  18.2407040  27.9877666  96.4730635  18.7644467  27.1944467  95.2948376
  14.1653351  26.9733181  87.1661162  13.3752405  27.2290710  86.6901273
  14.6564599  27.7881519  87.2713203  28.1817161  34.3138421  89.9166443
  29.0034605  33.9118608  89.6349125  28.1779564  34.2106655  90.8682559
  16.1168097  27.3377761  84.1244639  15.3199260  27.4496455  84.6428135
  15.8893689  27.6764413  83.2585529  21.9473764  33.8622464  92.0727154
  22.0118197  34.3242871  92.9085325  21.2384688  33.2319829  92.2009463
  12.4491054  27.2263672  89.5976153  12.6999093  28.1110682  89.8633729
  12.9850603  27.0468273  88.8251245  36.2723154  30.6577169  86.2651415
  35.5186862  30.0884567  86.1095419  36.4070695  30.6239834  87.2122049
  21.6621782  35.5290571  81.9406134  21.5267457  36.3742107  82.3690982
  22.2031595  35.7309849  81.1772068  15.1151180  33.0466009  82.5134059
  15.6275700  33.8409260  82.6639624  15.7673892  32.3492300  82.4467660
  16.9246064  36.1631766  84.5956812  17.1012693  37.0849730  84.4077796
  17.7202898  35.8490185  85.0251192  21.0657083  23.0240030  96.1940746
  21.8066796  23.6247184  96.1145208  21.2975006  22.2817668  95.6358788
  16.2098421  28.2096398  94.4718975  16.0951936  27.3081655  94.7726074
  15.3542939  28.4560094  94.1203792  23.2890259  36.1514138  96.0706476
  22.8454113  35.3650517  95.7527380  23.9507472  36.3393288  95.4050367
  18.0477380  37.6809940  90.5967155  18.5984805  37.5527003  89.8244148
  17.2088856  37.9804829  90.2462047  25.3871497  36.4316938  94.0987877
  25.3689972  37.2525819  93.6068146  26.3091417  36.3071013  94.3238018
  21.8444551  33.9461067  94.9411386  22.3772888  33.1849356  94.7110694
  21.3158632  33.6534719  95.6835540  25.0114246  19.0521133  90.4705027
  24.6678515  19.9422775  90.3944138  25.3793208  18.8622791  89.6074612
  13.0800096  31.3754664  83.2893630  13.9175318  31.7851672  83.0727337
  13.2578364  30.4354106  83.2593823  24.9764528  29.0429744  78.9777463
  24.4611152  29.8134349  79.2165850  24.7041837  28.3694881  79.6010524
  22.5611639  23.8879445  84.0362701  21.7053236  23.4986296  83.8568340
  22.9738591  23.9671406  83.1762486  24.0910786  21.4225788  88.4354261
  23.5875582  21.3855924  87.6222066  24.3841393  22.3318531  88.4950917
  20.3353672  21.5064518  87.4420442  21.2006669  21.3107327  87.0826332
  20.4031181  21.2774870  88.3689799  29.9498803  31.7962099  80.9130636
  29.1728245  31.4573259  80.4685798  30.6290284  31.8014722  80.2385601
  24.7650832  26.9156837  80.8037244  24.4600967  27.2302986  81.6547387
  25.7181274  26.9938256  80.8464577  23.2097263  33.0747060  82.4530198
  22.6818625  32.3399819  82.1403435  22.7084766  33.8521736  82.2070166
  28.1890109  31.2696080  87.5697244  27.5313784  31.9595342  87.6577373
  28.9930509  31.6592512  87.9131230  17.9415991  23.7366726  84.8136809
  18.5159743  23.5141908  84.0810002  18.5286974  23.8055421  85.5665410
  26.9995568  29.6240453  85.6201186  27.5127450  30.2570445  86.1222895
  27.6496792  29.0241649  85.2544546  18.2685578  25.7671187  78.8332694
  17.4322890  26.1045874  79.1541969  18.1290348  25.6320167  77.8959831
  20.2438659  20.6107975  83.5411879  19.5903071  20.2956992  82.9168493
  20.2019133  19.9883716  84.2671702  21.3549864  30.8927270  75.4565171
  20.4476925  30.6616524  75.6556320  21.8520896  30.0964889  75.6439152
  24.2617943  39.6024777  78.3761857  23.5879641  39.9056474  78.9846815
  24.6483764  40.4053858  78.0267314  23.4776399  27.0989909  87.8659526
  22.5598961  27.3204856  87.7081214  23.8936543  27.1736219  87.0071234
  24.2611447  28.4981324  82.9962206  25.0083266  29.0102721  82.6869329
  24.5303036  28.1765377  83.8566600  22.5338097  30.9939865  79.9789161
  21.6249316  30.7098898  80.0761631  22.5633181  31.4138944  79.1192468
  27.7657364  34.6046454  83.7480328  27.3119692  33.7637364  83.8045519
  27.1351331  35.2407853  84.0855108  26.7090284  25.5338441  84.9780996
  25.9713041  25.0215827  85.3091238  26.9617058  25.0938822  84.1664273
  26.2090304  36.4422951  84.6830146  26.5013278  37.0028008  83.9642512
  26.7188924  36.7351512  85.4383306  26.8101911  18.3114693  85.5722765
  27.1160788  17.4512056  85.2848680  27.5354516  18.9032313  85.3721759
  13.1026267  28.7145379  83.9604363  12.9050667  28.1214740  83.2355430
  12.5472931  28.4097589  84.6780302  21.0822991  28.6068486  86.0798956
  21.1371601  27.6542322  86.0041433  20.2714193  28.7627925  86.5640255
  22.2314185  32.5348609  77.3177239  21.7933615  31.8184468  76.8582877
  22.9724626  32.7624723  76.7562331  19.0215351  27.2245545  83.8389335
  18.2083217  27.5239716  84.2454527  19.5174345  26.8301234  84.5563817
  21.1723929  37.2203302  85.7723600  21.1300108  37.4464149  84.8432132
  22.0886628  36.9866677  85.9209401  24.6189563  27.6887370  92.6704229
  24.9738950  27.9158843  93.5298695  25.2661694  28.0205747  92.0481484
  30.3487300  30.8105806  83.3753558  30.2105198  31.0007402  82.4474747
  29.9923518  31.5725189  83.8321609  18.5129426  24.7963901  89.4550570
  19.1528805  24.6552660  88.7573533  17.6806956  24.5098414  89.0789172
  30.3756679  32.8782333  88.3864829  30.8093186  32.7857622  89.2347883
  31.0888260  32.8539833  87.7484845  19.2889730  34.0966331  85.5685562
  20.0830328  33.6016651  85.3668137  18.5781422  33.5684194  85.2053268
  24.1084574  36.4784427  89.9197930  24.1621596  37.0475363  90.6875646
  23.2399356  36.6486312  89.5551967  15.5972493  28.2409413  81.6445315
  14.6670081  28.1793869  81.8615277  15.6929965  27.7185366  80.8481956
  15.5158042  24.7664226  84.2323557  15.7764860  25.6809559  84.1232717
  16.3375215  24.2988668  84.3820170  16.9882968  26.1801983  91.4022381
  17.6606021  25.9719345  90.7535030  16.1612754  25.9824069  90.9627614
  31.2372229  32.9206033  90.9197715  31.4308119  33.8251844  91.1656990
  31.1372847  32.4613452  91.7536300  22.8908540  22.8063924  93.4188042
  22.2436455  23.5053874  93.3252519  23.6609555  23.2400068  93.7864290
  26.2987338  33.0712776  96.4938595  26.1472844  32.8423328  95.5768679
  26.2892017  34.0283378  96.5069940  23.0672674  30.6444689  91.4784862
  23.9964734  30.7955848  91.3053829  22.6463704  30.7328710  90.6233508
  21.8661006  34.6695353  89.2483400  21.7272091  34.3014138  90.1209338
  21.0775602  35.1842993  89.0767357  22.4609158  39.7704450  80.5908936
  22.6360913  39.2992493  81.4054559  21.7741946  40.3970216  80.8190197
  23.4166221  34.0476956  86.6372237  23.0816053  34.0077726  87.5329887
  22.9170167  33.3821672  86.1642648  17.3910465  29.4544586  92.1624818
  17.2530263  28.7224825  92.7636357  18.3015388  29.3653486  91.8809006
  26.3525412  31.3932990  76.9109297  25.7354583  30.6679818  76.8142350
  25.8841901  32.1542351  76.5676371  20.0192765  29.1664545  91.6508498
  20.7292384  28.5257738  91.6095117  19.9762074  29.4177440  92.5734679
  28.0079544  36.1031899  94.5715077  27.9492090  35.4191119  93.9045660
  28.4099063  36.8450889  94.1195703  18.7321699  26.1529763  93.4704138
  18.1959056  25.7020502  94.1225734  18.1438408  26.2875672  92.7274602
  17.0270243  42.9193813  87.3648796  17.2666841  43.5512337  88.0427815
  16.1839439  42.5681853  87.6514155  18.1423958  25.6118415  76.0330601
  17.2653425  25.4907215  75.6692848  18.6181711  24.8204493  75.7809490
  28.0096951  34.0671483  92.8029057  27.1223730  33.7297404  92.9255456
  28.5795502  33.3354514  93.0397822   9.6626099  30.3995574  86.1272108
  10.3497138  30.0857304  85.5393124   9.5074227  31.3036939  85.8539360
  14.4660821  25.2885771  90.5557132  14.3819009  24.6811440  89.8207542
  13.6443527  25.7794789  90.5566628  21.5398105  38.7272935  89.7690300
  21.4668276  39.5327906  90.2809605  21.0975498  38.9264901  88.9438322
  21.3287884  37.9644705  83.2793122  20.5455406  38.5066385  83.3731346
  22.0280630  38.4818685  83.6787363  24.6384535  23.7739334  85.9227327
  25.1353234  23.0209297  85.6028397  23.8671516  23.8103651  85.3570536
  32.4914292  29.4779700  87.5645619  32.4804168  30.3604415  87.1939552
  31.6231671  29.1251251  87.3700156  23.9996788  38.6259769  91.9248459
  24.7124761  39.2607234  91.8524360  23.5086817  38.7223635  91.1088461
  25.7214315  32.5311022  83.4965751  24.7870594  32.6512484  83.3270455
  25.8990984  31.6283488  83.2325760  21.2219503  25.9156717  85.6499012
  20.8517291  25.3627758  86.3379917  21.7178596  25.3114851  85.0974012
  29.1086867  28.3728341  84.0315785  29.5747319  29.2056333  83.9576087
  29.5594367  27.9073323  84.7361043  19.0508702  36.3754212  92.7454030
  19.7518161  37.0090695  92.8983424  18.5803817  36.7168944  91.9849669
  27.1763098  34.7172162  81.0301937  27.4522942  34.6028757  81.9395811
  26.3067596  34.3189647  80.9914110  27.0803529  20.7408928  88.0706686
  26.1666609  20.9713155  88.2388893  27.5096631  20.8247372  88.9220718
  26.8509988  28.9298820  90.5706580  26.1981438  29.1774727  89.9159033
  27.2290368  28.1162958  90.2369057  23.8117162  38.9658513  84.6734750
  23.9939556  38.1480169  85.1362503  24.6350148  39.1826205  84.2359640
  24.1459327  37.8926698  81.9349799  24.6747094  37.3819153  81.3219961
  24.4087547  37.5769228  82.7995332  22.8997561  29.6718631  97.0572617
  22.2238198  29.5712760  97.7274992  23.7225195  29.5157845  97.5208614
  14.6476420  35.9090567  89.6785132  15.2329857  35.1634255  89.8113037
  14.4501258  36.2194524  90.5621796  17.5015075  38.9441815  84.6947575
  16.8325450  39.4287943  84.2111615  17.3627945  39.1911035  85.6090953
   9.2394075  28.4796168  88.3989576   9.2778174  27.9459758  89.1926694
   8.7334367  27.9531373  87.7800553  21.6420344  40.9785558  91.2930233
  22.1938652  41.1417180  92.0579318  21.9826537  41.5689996  90.6210258
  16.6184837  23.3260708  91.8952118  16.6826163  24.1875539  91.4829515
  16.5551957  22.7134710  91.1624476  26.4931218  35.8046816  97.1478888
  27.0371122  36.4176774  96.6533842  25.9118063  36.3626394  97.6645901
  12.8702652  27.2060270  81.4743507  13.1656093  26.2970948  81.4210561
  11.9690688  27.1848009  81.1524509  24.7788731  38.9267534  88.2793915
  24.6539870  38.1257274  87.7704861  25.4367822  39.4213727  87.7907885
  16.3996899  25.2816266  87.4571055  15.6783485  25.8952234  87.3178529
  17.1890155  25.8174031  87.3787701  26.8423639  36.7276554  89.9073465
  25.8953975  36.6081905  89.8351792  27.1906413  35.8399052  89.9899727
  19.2023213  22.6170693  93.7311707  19.7257615  22.8632989  94.4938017
  18.9835546  23.4490728  93.3114845  14.5990494  24.8874368  81.5982832
  14.2703200  24.0071746  81.4157938  14.9529865  24.8322036  82.4859221
  23.8470073  36.5229270  86.1077818  23.6995035  35.5945978  86.2885388
  24.6723566  36.5449361  85.6234893  17.7132317  25.1747337  81.9658310
  18.0528389  25.7033259  81.2436918  18.1604437  25.5127743  82.7416876
  27.4504195  37.3457829  87.1942690  28.3750742  37.1400690  87.0567141
  27.2819498  37.0974230  88.1032032  20.4075758  23.5584388  91.4161378
  20.0672578  22.7592201  91.8182058  19.7014764  23.8586099  90.8438211
  21.0592230  20.6433700  89.8688701  21.8818299  20.1694179  89.7467591
  21.3030293  21.4224184  90.3687387  19.7000464  23.6721959  80.1651602
  20.4208827  24.0503212  79.6615319  19.0765768  24.3910836  80.2686580
  23.8431587  24.3767108  81.1009935  24.0595201  25.2591746  80.7998763
  23.3625654  23.9853321  80.3715577  18.5830808  27.3352821  87.6780679
  18.4375389  27.6493124  88.5704961  18.1056012  27.9537721  87.1251578
  20.4427191  24.3255369  87.7261569  20.4288760  23.4296462  87.3893867
  21.1599619  24.3326033  88.3599855  22.2953322  24.7592709  89.7714696
  22.0371100  25.6809780  89.7699027  21.7638362  24.3623144  90.4615161
  27.2399511  37.8643496  82.5504782  27.4136388  37.2989919  81.7978634
  27.7328402  38.6644391  82.3684272  13.0576471  29.8758165  90.6168341
  12.5129939  30.6517973  90.7488615  13.9355820  30.2228970  90.4587462
  19.8464087  23.2069749  82.9949139  19.9679998  22.2786396  83.1940027
  19.5566130  23.2208435  82.0827455  22.7155278  20.8924660  86.1315859
  22.7376974  20.9563993  85.1767838  23.1323337  20.0529168  86.3256365
  33.0938902  30.6279919  84.1695082  33.5370048  29.8787245  83.7714205
  32.2165412  30.6190056  83.7868814  28.2274683  37.1810261  79.6501680
  28.9225588  37.8016953  79.8688995  28.5697833  36.3305612  79.9254058
  13.8442492  29.0028062  93.5098497  13.1024228  29.1510697  94.0963128
  13.5235237  29.2636327  92.6465247  30.1266106  34.6309966  81.1789011
  30.6517430  34.9697239  80.4538331  30.0388459  33.6956982  80.9952145
  21.7886155  38.5444040  93.3078887  22.0973282  38.2993187  94.1801587
  22.5861637  38.7490678  92.8197758  21.8106767  40.6981950  85.5384264
  21.3711757  40.2058328  86.2317121  22.5614884  40.1554917  85.2976339
  14.2899106  36.8893490  85.5408892  15.1157126  36.5897262  85.1607536
  13.9393158  36.1201113  85.9898681  19.2580639  36.2419959  87.6106566
  18.6360649  35.5790664  87.3108794  19.9285506  36.2681091  86.9280213
  12.4907711  34.8079817  86.4997826  11.6539619  34.3801991  86.3181827
  12.4631357  35.0012260  87.4368617  29.8160012  35.2642870  96.4840209
  29.0255556  35.2467009  95.9444708  29.5793367  35.8031164  97.2389245
  29.9357887  32.1135336  93.7972937  29.9855892  31.9485344  94.7388460
  29.8271811  31.2462595  93.4070818  18.8194146  34.7923882  81.0865026
  18.9682267  35.4759346  80.4331699  19.6260590  34.7728972  81.6014482
  27.2261650  28.0966264  95.1132244  28.1271513  27.9572729  94.8216242
  27.3009624  28.2620719  96.0530421  21.5604455  25.4733119  93.9585430
  20.6907765  25.7666685  93.6868019  21.7963936  26.0573564  94.6792694
  31.4376084  34.5332278  94.0414959  31.1460893  34.8962258  94.8778420
  30.8248216  33.8199286  93.8628291  32.6371767  32.0985158  86.5617529
  33.4718658  32.5374962  86.7255089  32.7730895  31.6223811  85.7425775
  29.6863273  29.6564892  92.5095017  30.1617394  29.8492539  91.7013868
  28.7628838  29.7124078  92.2638401  16.5746779  30.8189060  82.0926095
  16.3292821  29.9151390  82.2906305  16.7442694  30.8206210  81.1505573
  24.2643489  21.6912736  91.4750851  24.7825433  22.4273763  91.1497339
  23.9098622  21.9976729  92.3097610  15.8442427  26.5517417  79.5912257
  15.1511672  26.6261772  78.9352293  15.5994179  25.7877761  80.1133774
  24.5156083  18.1113019  86.9951747  24.7957837  17.4436208  87.6212174
  25.3006690  18.3042114  86.4826411  22.3189552  37.2872012  78.5576774
  21.7463519  37.9062200  78.1047246  22.8922345  37.8371374  79.0916696
  28.3864942  26.5330653  90.7423322  29.3382364  26.6328750  90.7635546
  28.2168392  25.7408921  91.2521407  26.4079321  23.6186236  90.9282723
  25.8129253  23.8991249  90.2329212  26.1229018  24.1080137  91.6999464
  25.5386811  37.5709163  79.6885356  26.4717485  37.5054724  79.8918231
  25.4510024  38.4065429  79.2299889  28.1674828  36.8875033  76.6489303
  28.0888460  36.5534897  77.5425061  28.9884495  37.3796801  76.6480776
  30.8653019  29.7536772  89.8565622  30.8329339  28.8152773  90.0425306
  31.4753643  29.8320809  89.1231447  22.7036350  28.6232825  75.8992826
  23.6495455  28.4939033  75.9681244  22.3250595  27.8847487  76.3762254
  31.0147508  26.5447816  89.9023905  30.4986556  25.7606272  89.7153834
  31.8987456  26.2166532  90.0670425  28.6758235  20.2888831  85.8619718
  28.4783056  19.9803919  86.7463050  29.2857940  21.0150470  85.9917648
  36.6829569  30.8152779  88.9971659  37.4132958  30.5538067  89.5579362
  36.0736515  30.0781501  89.0373727  34.7644866  28.9560642  89.5946110
  34.0378030  28.8216607  88.9862602  34.3492153  29.2637470  90.4002828
  22.5875043  32.6750571  97.3593483  23.5078052  32.8529170  97.5533530
  22.5524626  31.7306617  97.2073182  20.8879267  26.5482802  75.8347711
  19.9810723  26.2515914  75.9110425  21.1655248  26.2512620  74.9681998
  11.8057208  27.8689165  86.2846758  11.4859992  27.0154473  85.9921132
  11.2590636  28.0837743  87.0404725  15.5837115  30.5851606  90.0016264
  15.8023125  31.5168714  90.0204298  15.9962889  30.2259580  90.7871068
  22.5041333  21.0919691  81.9891953  21.6942061  20.7466776  82.3647199
  23.1925750  20.7827235  82.5779564  24.4331881  20.1697738  83.6116249
  24.9862920  20.5893192  84.2706272  24.6701968  19.2433486  83.6539205
  19.6578052  23.4069737  75.9759691  20.5197216  23.7324635  76.2355508
  19.8428396  22.6201233  75.4632756  11.6745468  31.4892077  88.2539879
  10.9808939  31.0746029  87.7409834  12.4218459  31.5312613  87.6573298
  27.8110688  22.2798263  83.1194914  27.2309358  22.9383067  82.7372966
  27.5446621  21.4575608  82.7082331  26.2614255  21.6803321  85.3216234
  26.7614033  21.7919856  84.5130553  26.9049863  21.3764374  85.9617042
  20.3196251  29.5881951  98.2084075  19.8363332  30.3882311  98.4147964
  20.4057190  29.5989896  97.2551519  13.5882210  31.4210330  86.1305894
  13.5652898  31.5198018  85.1787777  13.8982847  32.2675481  86.4523060
  16.2469588  33.4786485  90.2452509  17.2012842  33.4470428  90.1782440
  16.0482112  33.0177109  91.0602735  16.8368970  32.0487601  92.8123306
  17.6561859  32.5431680  92.8358144  17.1105778  31.1319570  92.7840874
  26.5935566  24.4398354  82.1751262  25.7061421  24.7248004  81.9571457
  27.0089556  24.2792117  81.3278539  29.9450103  24.4644875  85.8905601
  30.7210493  24.9541327  86.1630218  29.2198237  24.8902929  86.3477471
  32.3822661  25.1772494  86.9479542  32.9767152  24.9368230  86.2372850
  32.4549245  24.4579624  87.5753078  14.6019817  39.0206105  87.2622707
  14.4674285  38.2606506  86.6960705  14.1851879  39.7447005  86.7951495
  25.7378780  34.2043028  76.2699282  26.4414630  34.4093031  76.8856937
  25.0141429  34.7719790  76.5348365  26.5676590  29.9552890  82.3901552
  26.5111792  30.4121441  81.5509184  27.1204933  29.1943574  82.2124395
  30.3781396  25.7442621  83.2151671  30.1218330  25.3439257  84.0459879
  29.7534264  26.4586415  83.0901811  34.6893734  28.4838695  85.7222963
  34.1293292  28.5531884  86.4954525  34.0837237  28.3079679  85.0022459
  17.7588943  39.9175422  87.4741149  17.6421327  40.8620854  87.3719839
  16.9381389  39.6148983  87.8626948  27.6465477  34.6425558  78.3197742
  28.4811081  34.2106756  78.1375217  27.4849820  34.4707571  79.2474636
  27.3011370  31.1457671  79.6854081  27.2460173  30.9801942  78.7442525
  26.6757425  31.8533704  79.8416271  12.0903885  26.3825735  93.5115503
  12.7362748  25.8724689  94.0002729  11.8821036  27.1194417  94.0858929
  24.6157277  33.4506583  99.0107644  25.4848436  33.6247235  98.6494279
  24.1364028  34.2701000  98.8883373  20.6107495  20.6465780  79.2639400
  20.5986165  21.5907620  79.4207670  21.5030917  20.4635925  78.9698861
  18.7843457  40.5703684  90.6897078  19.6870704  40.6027294  91.0063573
  18.5580827  39.6404135  90.7043413  20.5397059  39.3234670  87.3507156
  19.5892690  39.3236532  87.2371528  20.8429545  38.5767405  86.8343191
  24.4259614  17.2408557  83.5185336  23.6592010  16.6867043  83.6642019
  24.8370319  17.3130425  84.3799488  36.2749752  45.1595209  88.4152919
  36.9128162  45.0401956  87.7116259  36.1570595  46.1076053  88.4740871
  33.0839459  45.1122637  88.3514443  32.7457970  44.9963701  87.4634978
  33.9529227  44.7113802  88.3315449  28.9426274  46.9658113  84.3411334
  28.3791140  46.8748050  83.5727622  28.8278669  46.1458018  84.8213827
  33.5659242  46.2657489  94.3100649  33.5547882  45.8710287  93.4381152
  33.7279881  45.5323561  94.9034420  26.4890706  48.4609305  87.1795555
  27.2811998  48.1200129  86.7641854  26.7287357  48.5704280  88.0997708
  34.5225833  50.6329081  79.6525799  33.8713813  51.2183161  79.2659813
  35.3170196  51.1635276  79.7120837  28.4481460  47.7218218  80.0512934
  29.2212336  47.1747205  79.9125809  28.8006859  48.5862467  80.2627395
  30.2866503  49.0494600  93.2579833  29.9956369  49.9540231  93.1426499
  30.9223487  49.0911128  93.9723902  31.2122710  46.4271449  89.8481192
  31.8086282  46.2027471  89.1338155  31.2697681  45.6856194  90.4506640
  30.7847738  43.8810884  77.6831383  31.0373259  43.3592405  76.9214846
  29.8472297  43.7177030  77.7858067  35.8291021  42.8846663  85.4906127
  36.6154110  42.4666086  85.1396544  36.0929725  43.7892755  85.6587775
  36.0001098  48.3219513  80.1894783  35.3646931  48.3954139  80.9015688
  35.6698505  48.9113112  79.5113863  41.2299448  42.8221896  86.3939105
  41.9624620  42.2521113  86.6276935  40.4738804  42.4343496  86.8345611
  30.5044027  45.7838990  79.8855758  30.3880285  45.1083894  80.5536843
  30.6146287  45.2971364  79.0687911  32.8475568  45.2449137  83.5902448
  32.4833775  44.7179758  84.3015369  33.7042684  44.8547606  83.4168933
  38.7524868  36.5343470  90.8533714  38.4208193  37.4038881  90.6294929
  38.1570482  36.2179754  91.5327744  32.4881055  40.2739037  78.5863796
  32.6555457  41.1419273  78.9534267  32.2978224  40.4366319  77.6625085
  35.2456388  48.7356016  90.2529626  34.9457111  49.6381055  90.1445434
  34.9007447  48.4688199  91.1050779  28.6968869  45.1869813  86.2866331
  27.7719366  45.0546027  86.4944023  28.9453283  45.9664032  86.7836273
  38.6453532  41.2538556  87.9327064  37.7370409  41.1853964  87.6385825
  38.5941128  41.7310501  88.7608889  32.4670276  42.7296694  79.5710463
  32.3469901  43.1753745  80.4095943  31.7722864  43.0782012  79.0124001
  26.0577680  44.8303086  87.1210120  26.1870062  45.0837565  88.0349532
  25.3775132  45.4230794  86.8014775  30.2277168  55.5000336  83.2200594
  30.1501197  56.4508161  83.2989075  29.6238811  55.1546209  83.8775520
  32.7194397  42.6728202  95.8761961  31.9427732  43.2322122  95.8664826
  33.3584961  43.1584985  96.3976831  40.5115178  39.4554994  89.7104938
  39.8689558  39.7487528  89.0644732  40.0070107  39.3407915  90.5158134
  38.1655342  43.2018168  80.3990797  39.0773198  43.4345554  80.2238495
  37.6564989  43.7855212  79.8365876  30.9740770  45.4813655  95.4379928
  31.7155454  46.0198699  95.1614752  30.2677755  46.1079944  95.5951480
  36.4496109  47.6242795  94.0352090  36.8579465  47.1825206  93.2906722
  35.7273371  47.0495423  94.2886282  32.8027179  42.5615402  91.4085647
  33.6488375  42.9854816  91.5520296  32.7425817  41.9049027  92.1024210
  36.7724924  48.1843986  87.7904378  36.1433787  48.3489700  87.0880446
  36.3850586  48.5985596  88.5615342  40.6514156  49.1198424  85.1448742
  39.9665194  49.4997325  84.5945776  40.7358005  49.7293751  85.8780690
  35.9526625  40.2219771  93.0666820  35.7087557  40.9761831  92.5301096
  36.2286555  40.6005118  93.9014067  37.9065088  46.7658383  91.7444086
  38.1181983  47.4090143  91.0678467  37.8594836  45.9320699  91.2766016
  35.5091317  39.3776204  88.6480658  34.6475796  39.6757457  88.9397395
  35.5353751  39.5946602  87.7161691  32.3252886  47.9218394  85.0554464
  32.7891232  48.2006097  84.2659086  32.0609684  47.0201839  84.8727554
  29.2176967  47.4689876  87.9934227  29.7878324  47.8977144  87.3551711
  29.8085079  47.1872460  88.6918412  31.2621772  44.0441547  81.8644029
  31.9645815  44.4962590  82.3317955  30.9302401  43.4025365  82.4923922
  29.7102134  42.6353303  96.2395238  29.0800794  43.3169584  96.4730635
  29.6038221  42.5236385  95.2948376  25.0047106  42.3025099  87.1661162
  24.2146160  42.5582628  86.6901273  25.4958353  43.1173437  87.2713203
  39.0210916  49.6430338  89.9166443  39.8428359  49.2410526  89.6349125
  39.0173318  49.5398573  90.8682559  26.9561851  42.6669678  84.1244639
  26.1593015  42.7788373  84.6428135  26.7287444  43.0056331  83.2585529
  32.7867519  49.1914382  92.0727154  32.8511952  49.6534789  92.9085325
  32.0778443  48.5611747  92.2009463  23.2884809  42.5555590  89.5976153
  23.5392847  43.4402600  89.8633729  23.8244357  42.3760191  88.8251245
  47.1116909  45.9869087  86.2651415  46.3580617  45.4176485  86.1095419
  47.2464450  45.9531751  87.2122049  32.5015537  50.8582489  81.9406134
  32.3661211  51.7034025  82.3690982  33.0425349  51.0601767  81.1772068
  28.9882876  36.9374069  98.6020489  28.5949822  36.3840268  99.2768133
  29.8049017  37.2484647  98.9927007  25.9544934  48.3757927  82.5134059
  26.4669455  49.1701177  82.6639624  26.6067647  47.6784218  82.4467660
  27.7639819  51.4923683  84.5956812  27.9406447  52.4141648  84.4077796
  28.5596652  51.1782103  85.0251192  31.9050837  38.3531948  96.1940746
  32.6460551  38.9539101  96.1145208  32.1368760  37.6109586  95.6358788
  27.0492175  43.5388315  94.4718975  26.9345690  42.6373573  94.7726074
  26.1936693  43.7852012  94.1203792  34.1284013  51.4806056  96.0706476
  33.6847867  50.6942434  95.7527380  34.7901227  51.6685206  95.4050367
  28.8871134  53.0101857  90.5967155  29.4378559  52.8818921  89.8244148
  28.0482610  53.3096746  90.2462047  36.2265251  51.7608856  94.0987877
  36.2083726  52.5817737  93.6068146  37.1485171  51.6362931  94.3238018
  32.6838305  49.2752985  94.9411386  33.2166642  48.5141273  94.7110694
  32.1552386  48.9826637  95.6835540  35.8508000  34.3813051  90.4705027
  35.5072270  35.2714693  90.3944138  36.2186963  34.1914709  89.6074612
  23.9193851  46.7046581  83.2893630  24.7569073  47.1143590  83.0727337
  24.0972119  45.7646024  83.2593823  35.8158283  44.3721662  78.9777463
  35.3004906  45.1426267  79.2165850  35.5435591  43.6986798  79.6010524
  33.4005394  39.2171363  84.0362701  32.5446990  38.8278213  83.8568340
  33.8132346  39.2963324  83.1762486  34.9304541  36.7517706  88.4354261
  34.4269336  36.7147841  87.6222066  35.2235147  37.6610449  88.4950917
  31.1747426  36.8356436  87.4420442  32.0400423  36.6399245  87.0826332
  31.2424935  36.6066788  88.3689799  40.7892557  47.1254017  80.9130636
  40.0122000  46.7865176  80.4685798  41.4684038  47.1306640  80.2385601
  35.6044586  42.2448754  80.8037244  35.2994722  42.5594903  81.6547387
  36.5575028  42.3230174  80.8464577  34.0491018  48.4038978  82.4530198
  33.5212380  47.6691737  82.1403435  33.5478521  49.1813654  82.2070166
  39.0283864  46.5987998  87.5697244  38.3707538  47.2887259  87.6577373
  39.8324263  46.9884430  87.9131230  28.7809746  39.0658644  84.8136809
  29.3553497  38.8433825  84.0810002  29.3680728  39.1347338  85.5665410
  37.8389323  44.9532371  85.6201186  38.3521205  45.5862363  86.1222895
  38.4890547  44.3533566  85.2544546  29.1079333  41.0963105  78.8332694
  28.2716645  41.4337791  79.1541969  28.9684102  40.9612085  77.8959831
  31.0832413  35.9399893  83.5411879  30.4296826  35.6248910  82.9168493
  31.0412887  35.3175633  84.2671702  32.1943618  46.2219188  75.4565171
  31.2870680  45.9908441  75.6556320  32.6914650  45.4256807  75.6439152
  35.1011697  54.9316695  78.3761857  34.4273396  55.2348392  78.9846815
  35.4877519  55.7345775  78.0267314  34.3170154  42.4281826  87.8659526
  33.3992715  42.6496773  87.7081214  34.7330297  42.5028137  87.0071234
  35.1005201  43.8273242  82.9962206  35.8477020  44.3394639  82.6869329
  35.3696791  43.5057295  83.8566600  33.3731852  46.3231783  79.9789161
  32.4643071  46.0390815  80.0761631  33.4026935  46.7430861  79.1192468
  38.6051119  49.9338372  83.7480328  38.1513446  49.0929282  83.8045519
  37.9745086  50.5699771  84.0855108  37.5484039  40.8630358  84.9780996
  36.8106795  40.3507744  85.3091238  37.8010812  40.4230740  84.1664273
  37.0484058  51.7714869  84.6830146  37.3407033  52.3319926  83.9642512
  37.5582679  52.0643430  85.4383306  37.6495666  33.6406610  85.5722765
  37.9554543  32.7803974  85.2848680  38.3748271  34.2324230  85.3721759
  23.9420022  44.0437297  83.9604363  23.7444422  43.4506657  83.2355430
  23.3866686  43.7389507  84.6780302  31.9216746  43.9360403  86.0798956
  31.9765355  42.9834240  86.0041433  31.1107948  44.0919842  86.5640255
  33.0707939  47.8640526  77.3177239  32.6327369  47.1476385  76.8582877
  33.8118380  48.0916641  76.7562331  29.8609106  42.5537463  83.8389335
  29.0476971  42.8531634  84.2454527  30.3568100  42.1593152  84.5563817
  32.0117683  52.5495220  85.7723600  31.9693862  52.7756066  84.8432132
  32.9280382  52.3158595  85.9209401  35.4583317  43.0179287  92.6704229
  35.8132705  43.2450761  93.5298695  36.1055448  43.3497664  92.0481484
  41.1881054  46.1397723  83.3753558  41.0498953  46.3299319  82.4474747
  40.8317273  46.9017106  83.8321609  29.3523180  40.1255819  89.4550570
  29.9922560  39.9844578  88.7573533  28.5200711  39.8390332  89.0789172
  41.2150434  48.2074250  88.3864829  41.6486940  48.1149539  89.2347883
  41.9282014  48.1831751  87.7484845  30.1283484  49.4258249  85.5685562
  30.9224083  48.9308569  85.3668137  29.4175177  48.8976112  85.2053268
  34.9478329  51.8076344  89.9197930  35.0015351  52.3767281  90.6875646
  34.0793110  51.9778230  89.5551967  26.4366248  43.5701331  81.6445315
  25.5063836  43.5085786  81.8615277  26.5323720  43.0477283  80.8481956
  26.3551797  40.0956144  84.2323557  26.6158614  41.0101477  84.1232717
  27.1768969  39.6280586  84.3820170  27.8276722  41.5093901  91.4022381
  28.4999775  41.3011263  90.7535030  27.0006509  41.3115987  90.9627614
  42.0765983  48.2497951  90.9197715  42.2701873  49.1543762  91.1656990
  41.9766601  47.7905370  91.7536300  33.7302294  38.1355842  93.4188042
  33.0830209  38.8345791  93.3252519  34.5003309  38.5691986  93.7864290
  37.1381092  48.4004694  96.4938595  36.9866598  48.1715245  95.5768679
  37.1285771  49.3575295  96.5069940  33.9066428  45.9736607  91.4784862
  34.8358488  46.1247766  91.3053829  33.4857458  46.0620627  90.6233508
  32.7054760  49.9987271  89.2483400  32.5665846  49.6306055  90.1209338
  31.9169356  50.5134910  89.0767357  33.3002912  55.0996367  80.5908936
  33.4754668  54.6284411  81.4054559  32.6135700  55.7262134  80.8190197
  34.2559975  49.3768874  86.6372237  33.9209808  49.3369644  87.5329887
  33.7563921  48.7113590  86.1642648  28.2304219  44.7836504  92.1624818
  28.0924017  44.0516743  92.7636357  29.1409143  44.6945404  91.8809006
  37.1919167  46.7224908  76.9109297  36.5748338  45.9971736  76.8142350
  36.7235655  47.4834268  76.5676371  30.8586520  44.4956463  91.6508498
  31.5686138  43.8549655  91.6095117  30.8155828  44.7469358  92.5734679
  38.8473299  51.4323816  94.5715077  38.7885845  50.7483036  93.9045660
  39.2492817  52.1742806  94.1195703  29.5715454  41.4821681  93.4704138
  29.0352811  41.0312419  94.1225734  28.9832162  41.6167590  92.7274602
  27.8663997  58.2485730  87.3648796  28.1060596  58.8804254  88.0427815
  27.0233194  57.8973770  87.6514155  28.9817713  40.9410332  76.0330601
  28.1047179  40.8199133  75.6692848  29.4575466  40.1496411  75.7809490
  38.8490706  49.3963400  92.8029057  37.9617485  49.0589322  92.9255456
  39.4189257  48.6646432  93.0397822  20.5019853  45.7287492  86.1272108
  21.1890893  45.4149222  85.5393124  20.3467982  46.6328857  85.8539360
  25.3054575  40.6177689  90.5557132  25.2212764  40.0103358  89.8207542
  24.4837282  41.1086707  90.5566628  32.3791859  54.0564853  89.7690300
  32.3062031  54.8619824  90.2809605  31.9369252  54.2556818  88.9438322
  32.1681639  53.2936623  83.2793122  31.3849161  53.8358303  83.3731346
  32.8674384  53.8110602  83.6787363  35.4778289  39.1031252  85.9227327
  35.9746989  38.3501214  85.6028397  34.7065271  39.1395569  85.3570536
  43.3308046  44.8071618  87.5645619  43.3197923  45.6896333  87.1939552
  42.4625426  44.4543168  87.3700156  34.8390543  53.9551687  91.9248459
  35.5518515  54.5899151  91.8524360  34.3480571  54.0515553  91.1088461
  36.5608070  47.8602939  83.4965751  35.6264348  47.9804402  83.3270455
  36.7384738  46.9575406  83.2325760  32.0613258  41.2448635  85.6499012
  31.6911045  40.6919675  86.3379917  32.5572350  40.6406769  85.0974012
  39.9480621  43.7020259  84.0315785  40.4141073  44.5348250  83.9576087
  40.3988122  43.2365240  84.7361043  29.8902456  51.7046130  92.7454030
  30.5911916  52.3382613  92.8983424  29.4197571  52.0460862  91.9849669
  38.0156852  50.0464080  81.0301937  38.2916696  49.9320674  81.9395811
  37.1461351  49.6481565  80.9914110  37.9197284  36.0700846  88.0706686
  37.0060364  36.3005072  88.2388893  38.3490385  36.1539290  88.9220718
  37.6903742  44.2590738  90.5706580  37.0375193  44.5066645  89.9159033
  38.0684122  43.4454876  90.2369057  34.6510916  54.2950431  84.6734750
  34.8333311  53.4772087  85.1362503  35.4743902  54.5118123  84.2359640
  34.9853082  53.2218616  81.9349799  35.5140848  52.7111070  81.3219961
  35.2481301  52.9061146  82.7995332  33.7391315  45.0010549  97.0572617
  33.0631952  44.9004678  97.7274992  34.5618949  44.8449762  97.5208614
  25.4870174  51.2382485  89.6785132  26.0723611  50.4926173  89.8113037
  25.2895013  51.5486442  90.5621796  28.3408830  54.2733733  84.6947575
  27.6719205  54.7579860  84.2111615  28.2021699  54.5202953  85.6090953
  20.0787829  43.8088085  88.3989576  20.1171929  43.2751676  89.1926694
  19.5728122  43.2823291  87.7800553  32.4814098  56.3077476  91.2930233
  33.0332406  56.4709098  92.0579318  32.8220292  56.8981914  90.6210258
  27.4578591  38.6552626  91.8952118  27.5219918  39.5167457  91.4829515
  27.3945712  38.0426628  91.1624476  26.9330864  40.7275758  95.5425152
  27.5602903  40.3452836  96.1562676  26.0758783  40.5089960  95.9080845
  37.3324973  51.1338734  97.1478888  37.8764877  51.7468692  96.6533842
  36.7511817  51.6918312  97.6645901  23.7096407  42.5352188  81.4743507
  24.0049848  41.6262866  81.4210561  22.8084443  42.5139927  81.1524509
  35.6182486  54.2559452  88.2793915  35.4933625  53.4549191  87.7704861
  36.2761577  54.7505645  87.7907885  27.2390654  40.6108184  87.4571055
  26.5177239  41.2244152  87.3178529  28.0283910  41.1465949  87.3787701
  37.6817394  52.0568472  89.9073465  36.7347729  51.9373823  89.8351792
  38.0300167  51.1690970  89.9899727  30.0416967  37.9462611  93.7311707
  30.5651369  38.1924907  94.4938017  29.8229301  38.7782645  93.3114845
  25.4384248  40.2166285  81.5982832  25.1096954  39.3363664  81.4157938
  25.7923619  40.1613954  82.4859221  34.6863827  51.8521188  86.1077818
  34.5388790  50.9237895  86.2885388  35.5117321  51.8741279  85.6234893
  28.5526071  40.5039255  81.9658310  28.8922144  41.0325176  81.2436918
  28.9998192  40.8419661  82.7416876  38.2897949  52.6749747  87.1942690
  39.2144497  52.4692608  87.0567141  38.1213252  52.4266148  88.1032032
  31.2469512  38.8876306  91.4161378  30.9066333  38.0884119  91.8182058
  30.5408519  39.1878017  90.8438211  31.8985984  35.9725618  89.8688701
  32.7212053  35.4986096  89.7467591  32.1424048  36.7516102  90.3687387
  30.5394219  39.0013877  80.1651602  31.2602581  39.3795129  79.6615319
  29.9159523  39.7202753  80.2686580  34.6825342  39.7059026  81.1009935
  34.8988956  40.5883663  80.7998763  34.2019409  39.3145239  80.3715577
  29.4224563  42.6644739  87.6780679  29.2769144  42.9785042  88.5704961
  28.9449767  43.2829639  87.1251578  31.2820946  39.6547287  87.7261569
  31.2682515  38.7588380  87.3893867  31.9993374  39.6617951  88.3599855
  33.1347076  40.0884627  89.7714696  32.8764854  41.0101698  89.7699027
  32.6032117  39.6915062  90.4615161  38.0793265  53.1935414  82.5504782
  38.2530143  52.6281837  81.7978634  38.5722156  53.9936309  82.3684272
  23.8970225  45.2050083  90.6168341  23.3523693  45.9809891  90.7488615
  24.7749575  45.5520888  90.4587462  30.6857842  38.5361667  82.9949139
  30.8073753  37.6078313  83.1940027  30.3959884  38.5500353  82.0827455
  33.5549032  36.2216577  86.1315859  33.5770729  36.2855911  85.1767838
  33.9717091  35.3821086  86.3256365  43.9332656  45.9571837  84.1695082
  44.3763802  45.2079162  83.7714205  43.0559167  45.9481973  83.7868814
  39.0668438  52.5102178  79.6501680  39.7619342  53.1308871  79.8688995
  39.4091588  51.6597530  79.9254058  24.6836247  44.3319979  93.5098497
  23.9417983  44.4802615  94.0963128  24.3628991  44.5928245  92.6465247
  40.9659861  49.9601884  81.1789011  41.4911185  50.2989157  80.4538331
  40.8782213  49.0248899  80.9952145  32.6279910  53.8735958  93.3078887
  32.9367036  53.6285104  94.1801587  33.4255392  54.0782596  92.8197758
  32.6500522  56.0273867  85.5384264  32.2105512  55.5350246  86.2317121
  33.4008639  55.4846835  85.2976339  25.1292861  52.2185408  85.5408892
  25.9550881  51.9189180  85.1607536  24.7786913  51.4493031  85.9898681
  30.0974394  51.5711876  87.6106566  29.4754403  50.9082581  87.3108794
  30.7679261  51.5973008  86.9280213  23.3301466  50.1371735  86.4997826
  22.4933374  49.7093909  86.3181827  23.3025111  50.3304178  87.4368617
  30.1698921  40.0493664  97.2039072  30.2187077  40.9255787  96.8216841
  30.7121435  39.5071057  96.6310715  40.6553767  50.5934788  96.4840209
  39.8649311  50.5758927  95.9444708  40.4187121  51.1323081  97.2389245
  40.7751642  47.4427254  93.7972937  40.8249647  47.2777261  94.7388460
  40.6665565  46.5754513  93.4070818  29.6587901  50.1215800  81.0865026
  29.8076021  50.8051264  80.4331699  30.4654344  50.1020890  81.6014482
  38.0655404  43.4258182  95.1132244  38.9665267  43.2864647  94.8216242
  38.1403379  43.5912637  96.0530421  32.3998210  40.8025037  93.9585430
  31.5301519  41.0958603  93.6868019  32.6357690  41.3865482  94.6792694
  42.2769839  49.8624196  94.0414959  41.9854647  50.2254176  94.8778420
  41.6641970  49.1491204  93.8628291  43.4765521  47.4277075  86.5617529
  44.3112413  47.8666879  86.7255089  43.6124650  46.9515729  85.7425775
  40.5257027  44.9856810  92.5095017  41.0011149  45.1784456  91.7013868
  39.6022592  45.0415996  92.2638401  27.4140534  46.1480977  82.0926095
  27.1686576  45.2443307  82.2906305  27.5836448  46.1498128  81.1505573
  35.1037244  37.0204654  91.4750851  35.6219187  37.7565681  91.1497339
  34.7492376  37.3268647  92.3097610  26.6836181  41.8809335  79.5912257
  25.9905426  41.9553690  78.9352293  26.4387933  41.1169679  80.1133774
  35.3549838  33.4404936  86.9951747  35.6351591  32.7728125  87.6212174
  36.1400445  33.6334032  86.4826411  33.1583306  52.6163930  78.5576774
  32.5857273  53.2354117  78.1047246  33.7316100  53.1663292  79.0916696
  39.2258696  41.8622570  90.7423322  40.1776119  41.9620668  90.7635546
  39.0562146  41.0700839  91.2521407  37.2473076  38.9478153  90.9282723
  36.6523008  39.2283166  90.2329212  36.9622772  39.4372054  91.6999464
  36.3780566  52.9001080  79.6885356  37.3111239  52.8346642  79.8918231
  36.2903779  53.7357347  79.2299889  39.0068583  52.2166951  76.6489303
  38.9282214  51.8826814  77.5425061  39.8278249  52.7088719  76.6480776
  41.7046774  45.0828690  89.8565622  41.6723094  44.1444691  90.0425306
  42.3147397  45.1612727  89.1231447  33.5430105  43.9524743  75.8992826
  34.4889209  43.8230951  75.9681244  33.1644350  43.2139405  76.3762254
  41.8541262  41.8739733  89.9023905  41.3380311  41.0898190  89.7153834
  42.7381211  41.5458450  90.0670425  39.5151989  35.6180749  85.8619718
  39.3176810  35.3095837  86.7463050  40.1251695  36.3442388  85.9917648
  47.5223324  46.1444697  88.9971659  48.2526712  45.8829985  89.5579362
  46.9130269  45.4073419  89.0373727  45.6038621  44.2852559  89.5946110
  44.8771784  44.1508524  88.9862602  45.1885908  44.5929388  90.4002828
  33.4268797  48.0042489  97.3593483  34.3471807  48.1821088  97.5533530
  33.3918380  47.0598534  97.2073182  31.7273022  41.8774719  75.8347711
  30.8204477  41.5807832  75.9110425  32.0049003  41.5804537  74.9681998
  22.6450962  43.1981083  86.2846758  22.3253747  42.3446391  85.9921132
  22.0984390  43.4129661  87.0404725  26.4230870  45.9143524  90.0016264
  26.6416880  46.8460632  90.0204298  26.8356644  45.5551498  90.7871068
  33.3435088  36.4211609  81.9891953  32.5335816  36.0758694  82.3647199
  34.0319504  36.1119153  82.5779564  35.2725636  35.4989656  83.6116249
  35.8256674  35.9185109  84.2706272  35.5095722  34.5725404  83.6539205
  31.2958735  41.4876729  99.3919013  31.1955462  42.4371086  99.3231104
  31.0780277  41.1594968  98.5195083  30.4971806  38.7361655  75.9759691
  31.3590970  39.0616553  76.2355508  30.6822151  37.9493150  75.4632756
  22.5139222  46.8183994  88.2539879  21.8202694  46.4037947  87.7409834
  23.2612213  46.8604531  87.6573298  38.6504443  37.6090181  83.1194914
  38.0703112  38.2674985  82.7372966  38.3840376  36.7867526  82.7082331
  37.1008009  37.0095239  85.3216234  37.6007788  37.1211773  84.5130553
  37.7443617  36.7056292  85.9617042  31.1590005  44.9173868  98.2084075
  30.6757087  45.7174228  98.4147964  31.2450944  44.9281813  97.2551519
  24.4275965  46.7502248  86.1305894  24.4046653  46.8489935  85.1787777
  24.7376601  47.5967399  86.4523060  27.0863343  48.8078403  90.2452509
  28.0406596  48.7762345  90.1782440  26.8875866  48.3469027  91.0602735
  27.6762725  47.3779519  92.8123306  28.4955614  47.8723598  92.8358144
  27.9499532  46.4611487  92.7840874  37.4329321  39.7690271  82.1751262
  36.5455176  40.0539922  81.9571457  37.8483310  39.6084035  81.3278539
  40.7843857  39.7936792  85.8905601  41.5604247  40.2833245  86.1630218
  40.0591991  40.2194847  86.3477471  43.2216416  40.5064412  86.9479542
  43.8160907  40.2660148  86.2372850  43.2942999  39.7871542  87.5753078
  25.4413571  54.3498023  87.2622707  25.3068039  53.5898423  86.6960705
  25.0245634  55.0738922  86.7951495  36.5772534  49.5334946  76.2699282
  37.2808385  49.7384949  76.8856937  35.8535183  50.1011708  76.5348365
  37.4070345  45.2844807  82.3901552  37.3505546  45.7413359  81.5509184
  37.9598687  44.5235492  82.2124395  41.2175151  41.0734539  83.2151671
  40.9612085  40.6731175  84.0459879  40.5928019  41.7878333  83.0901811
  45.5287488  43.8130612  85.7222963  44.9687046  43.8823802  86.4954525
  44.9230992  43.6371597  85.0022459  28.5982697  55.2467340  87.4741149
  28.4815081  56.1912772  87.3719839  27.7775144  54.9440901  87.8626948
  38.4859232  49.9717475  78.3197742  39.3204836  49.5398674  78.1375217
  38.3243575  49.7999489  79.2474636  38.1405124  46.4749589  79.6854081
  38.0853928  46.3093860  78.7442525  37.5151179  47.1825621  79.8416271
  22.9297639  41.7117653  93.5115503  23.5756503  41.2016607  94.0002729
  22.7214790  42.4486335  94.0858929  35.4551031  48.7798500  99.0107644
  36.3242191  48.9539153  98.6494279  34.9757783  49.5992917  98.8883373
  31.4501249  35.9757698  79.2639400  31.4379919  36.9199537  79.4207670
  32.3424671  35.7927843  78.9698861  29.6237211  55.8995601  90.6897078
  30.5264458  55.9319212  91.0063573  29.3974581  54.9696052  90.7043413
  31.3790813  54.6526588  87.3507156  30.4286444  54.6528450  87.2371528
  31.6823300  53.9059323  86.8343191  35.2653369  32.5700474  83.5185336
  34.4985765  32.0158961  83.6642019  35.6764074  32.6422343  84.3799488
  27.2695130  38.8585270  97.6090518  28.1326592  38.5022075  97.8193842
  26.6960541  38.5199165  98.2965922  47.1143507  60.4887126  88.4152919
  47.7521917  60.3693874  87.7116259  46.9964350  61.4367970  88.4740871
  43.9233213  60.4414554  88.3514443  43.5851725  60.3255619  87.4634978
  44.7922981  60.0405720  88.3315449  39.7820029  62.2950031  84.3411334
  39.2184894  62.2039968  83.5727622  39.6672424  61.4749935  84.8213827
  44.4052996  61.5949406  94.3100649  44.3941637  61.2002204  93.4381152
  44.5673636  60.8615479  94.9034420  37.3284461  63.7901222  87.1795555
  38.1205753  63.4492047  86.7641854  37.5681111  63.8996198  88.0997708
  45.3619588  65.9620999  79.6525799  44.7107567  66.5475079  79.2659813
  46.1563950  66.4927193  79.7120837  39.2875215  63.0510136  80.0512934
  40.0606091  62.5039123  79.9125809  39.6400614  63.9154385  80.2627395
  41.1260257  64.3786518  93.2579833  40.8350123  65.2832149  93.1426499
  41.7617242  64.4203046  93.9723902  42.0516464  61.7563367  89.8481192
  42.6480036  61.5319389  89.1338155  42.1091436  61.0148112  90.4506640
  41.6241493  59.2102802  77.6831383  41.8767013  58.6884323  76.9214846
  40.6866052  59.0468947  77.7858067  46.6684775  58.2138580  85.4906127
  47.4547865  57.7958003  85.1396544  46.9323480  59.1184672  85.6587775
  46.8394853  63.6511431  80.1894783  46.2040686  63.7246057  80.9015688
  46.5092259  64.2405029  79.5113863  52.0693203  58.1513813  86.3939105
  52.8018374  57.5813030  86.6276935  51.3132558  57.7635414  86.8345611
  41.3437781  61.1130908  79.8855758  41.2274039  60.4375811  80.5536843
  41.4540041  60.6263282  79.0687911  43.6869322  60.5741055  83.5902448
  43.3227529  60.0471676  84.3015369  44.5436438  60.1839524  83.4168933
  49.5918623  51.8635388  90.8533714  49.2601948  52.7330798  90.6294929
  48.9964236  51.5471672  91.5327744  43.3274809  55.6030955  78.5863796
  43.4949212  56.4711191  78.9534267  43.1371978  55.7658236  77.6625085
  46.0850142  64.0647934  90.2529626  45.7850866  64.9672972  90.1445434
  45.7401202  63.7980117  91.1050779  39.5362624  60.5161730  86.2866331
  38.6113120  60.3837944  86.4944023  39.7847037  61.2955950  86.7836273
  49.4847286  56.5830474  87.9327064  48.5764164  56.5145882  87.6385825
  49.4334882  57.0602419  88.7608889  43.3064030  58.0588612  79.5710463
  43.1863655  58.5045663  80.4095943  42.6116618  58.4073930  79.0124001
  36.8971435  60.1595004  87.1210120  37.0263816  60.4129483  88.0349532
  36.2168886  60.7522712  86.8014775  41.0670922  70.8292254  83.2200594
  40.9894952  71.7800079  83.2989075  40.4632566  70.4838126  83.8775520
  43.5588152  58.0020119  95.8761961  42.7821486  58.5614039  95.8664826
  44.1978715  58.4876902  96.3976831  51.3508933  54.7846912  89.7104938
  50.7083313  55.0779445  89.0644732  50.8463861  54.6699832  90.5158134
  49.0049096  58.5310085  80.3990797  49.9166952  58.7637472  80.2238495
  48.4958743  59.1147129  79.8365876  41.8134524  60.8105573  95.4379928
  42.5549209  61.3490617  95.1614752  41.1071510  61.4371861  95.5951480
  47.2889864  62.9534713  94.0352090  47.6973220  62.5117124  93.2906722
  46.5667125  62.3787341  94.2886282  43.6420934  57.8907320  91.4085647
  44.4882129  58.3146733  91.5520296  43.5819572  57.2340944  92.1024210
  47.6118679  63.5135904  87.7904378  46.9827541  63.6781618  87.0880446
  47.2244341  63.9277513  88.5615342  51.4907910  64.4490342  85.1448742
  50.8058949  64.8289243  84.5945776  51.5751760  65.0585668  85.8780690
  46.7920379  55.5511688  93.0666820  46.5481311  56.3053749  92.5301096
  47.0680310  55.9297036  93.9014067  48.7458842  62.0950301  91.7444086
  48.9575737  62.7382061  91.0678467  48.6988590  61.2612617  91.2766016
  46.3485071  54.7068121  88.6480658  45.4869550  55.0049375  88.9397395
  46.3747506  54.9238520  87.7161691  43.1646640  63.2510312  85.0554464
  43.6284986  63.5298015  84.2659086  42.9003439  62.3493756  84.8727554
  40.0570722  62.7981793  87.9934227  40.6272079  63.2269062  87.3551711
  40.6478833  62.5164378  88.6918412  42.1015527  59.3733464  81.8644029
  42.8039570  59.8254508  82.3317955  41.7696155  58.7317283  82.4923922
  40.5495888  57.9645221  96.2395238  39.9194549  58.6461502  96.4730635
  40.4431976  57.8528302  95.2948376  35.8440860  57.6317017  87.1661162
  35.0539914  57.8874545  86.6901273  36.3352108  58.4465355  87.2713203
  49.8604670  64.9722256  89.9166443  50.6822114  64.5702443  89.6349125
  49.8567073  64.8690490  90.8682559  37.7955606  57.9961596  84.1244639
  36.9986769  58.1080290  84.6428135  37.5681198  58.3348248  83.2585529
  43.6261273  64.5206299  92.0727154  43.6905706  64.9826707  92.9085325
  42.9172197  63.8903664  92.2009463  34.1278563  57.8847507  89.5976153
  34.3786602  58.7694517  89.8633729  34.6638112  57.7052109  88.8251245
  43.3409291  66.1874407  81.9406134  43.2054966  67.0325943  82.3690982
  43.8819104  66.3893684  81.1772068  39.8276631  52.2665987  98.6020489
  39.4343576  51.7132185  99.2768133  40.6442771  52.5776565  98.9927007
  36.7938689  63.7049845  82.5134059  37.3063209  64.4993095  82.6639624
  37.4461401  63.0076135  82.4467660  38.6033573  66.8215601  84.5956812
  38.7800202  67.7433566  84.4077796  39.3990407  66.5074020  85.0251192
  42.7444592  53.6823866  96.1940746  43.4854305  54.2831019  96.1145208
  42.9762515  52.9401504  95.6358788  37.8885930  58.8680233  94.4718975
  37.7739445  57.9665490  94.7726074  37.0330448  59.1143930  94.1203792
  44.9677768  66.8097973  96.0706476  44.5241622  66.0234352  95.7527380
  45.6294981  66.9977124  95.4050367  39.7264889  68.3393775  90.5967155
  40.2772314  68.2110838  89.8244148  38.8876365  68.6388664  90.2462047
  47.0659006  67.0900773  94.0987877  47.0477481  67.9109654  93.6068146
  47.9878926  66.9654848  94.3238018  43.5232060  64.6044903  94.9411386
  44.0560397  63.8433191  94.7110694  42.9946141  64.3118555  95.6835540
  46.6901755  49.7104969  90.4705027  46.3466024  50.6006610  90.3944138
  47.0580717  49.5206626  89.6074612  34.7587605  62.0338499  83.2893630
  35.5962827  62.4435508  83.0727337  34.9365873  61.0937941  83.2593823
  46.6552037  59.7013580  78.9777463  46.1398661  60.4718184  79.2165850
  46.3829346  59.0278716  79.6010524  44.2399148  54.5463281  84.0362701
  43.3840745  54.1570131  83.8568340  44.6526100  54.6255241  83.1762486
  45.7698295  52.0809624  88.4354261  45.2663091  52.0439759  87.6222066
  46.0628902  52.9902367  88.4950917  42.0141181  52.1648354  87.4420442
  42.8794178  51.9691162  87.0826332  42.0818690  51.9358705  88.3689799
  51.6286312  62.4545934  80.9130636  50.8515754  62.1157094  80.4685798
  52.3077793  62.4598558  80.2385601  46.4438341  57.5740672  80.8037244
  46.1388476  57.8886821  81.6547387  47.3968783  57.6522092  80.8464577
  44.8884772  63.7330895  82.4530198  44.3606134  62.9983655  82.1403435
  44.3872275  64.5105572  82.2070166  49.8677618  61.9279916  87.5697244
  49.2101293  62.6179177  87.6577373  50.6718018  62.3176348  87.9131230
  39.6203500  54.3950562  84.8136809  40.1947252  54.1725743  84.0810002
  40.2074482  54.4639256  85.5665410  48.6783077  60.2824288  85.6201186
  49.1914959  60.9154280  86.1222895  49.3284301  59.6825484  85.2544546
  39.9473087  56.4255023  78.8332694  39.1110399  56.7629709  79.1541969
  39.8077857  56.2904002  77.8959831  41.9226168  51.2691810  83.5411879
  41.2690580  50.9540828  82.9168493  41.8806642  50.6467551  84.2671702
  45.9405452  70.2608613  78.3761857  45.2667150  70.5640309  78.9846815
  46.3271273  71.0637693  78.0267314  45.1563908  57.7573744  87.8659526
  44.2386470  57.9788691  87.7081214  45.5724052  57.8320054  87.0071234
  45.9398956  59.1565160  82.9962206  46.6870775  59.6686557  82.6869329
  46.2090545  58.8349212  83.8566600  44.2125606  61.6523700  79.9789161
  43.3036825  61.3682733  80.0761631  44.2420690  62.0722779  79.1192468
  49.4444873  65.2630290  83.7480328  48.9907201  64.4221200  83.8045519
  48.8138840  65.8991688  84.0855108  48.3877793  56.1922276  84.9780996
  47.6500550  55.6799662  85.3091238  48.6404567  55.7522657  84.1664273
  47.8877813  67.1006787  84.6830146  48.1800787  67.6611844  83.9642512
  48.3976433  67.3935348  85.4383306  48.4889420  48.9698528  85.5722765
  48.7948297  48.1095891  85.2848680  49.2142025  49.5616148  85.3721759
  34.7813776  59.3729214  83.9604363  34.5838176  58.7798575  83.2355430
  34.2260440  59.0681425  84.6780302  42.7610500  59.2652321  86.0798956
  42.8159110  58.3126157  86.0041433  41.9501702  59.4211760  86.5640255
  43.9101694  63.1932444  77.3177239  43.4721124  62.4768303  76.8582877
  44.6512135  63.4208559  76.7562331  40.7002860  57.8829381  83.8389335
  39.8870726  58.1823551  84.2454527  41.1961854  57.4885069  84.5563817
  42.8511438  67.8787138  85.7723600  42.8087617  68.1047984  84.8432132
  43.7674137  67.6450512  85.9209401  46.2977072  58.3471205  92.6704229
  46.6526459  58.5742678  93.5298695  46.9449203  58.6789582  92.0481484
  52.0274809  61.4689641  83.3753558  51.8892707  61.6591237  82.4474747
  51.6711027  62.2309024  83.8321609  40.1916935  55.4547736  89.4550570
  40.8316314  55.3136495  88.7573533  39.3594465  55.1682250  89.0789172
  52.0544188  63.5366168  88.3864829  52.4880695  63.4441457  89.2347883
  52.7675769  63.5123669  87.7484845  40.9677239  64.7550167  85.5685562
  41.7617837  64.2600487  85.3668137  40.2568931  64.2268030  85.2053268
  45.7872083  67.1368262  89.9197930  45.8409105  67.7059198  90.6875646
  44.9186865  67.3070147  89.5551967  37.2760002  58.8993248  81.6445315
  36.3457590  58.8377704  81.8615277  37.3717474  58.3769201  80.8481956
  37.1945551  55.4248061  84.2323557  37.4552369  56.3393394  84.1232717
  38.0162724  54.9572504  84.3820170  38.6670477  56.8385818  91.4022381
  39.3393530  56.6303181  90.7535030  37.8400263  56.6407904  90.9627614
  52.9159738  63.5789869  90.9197715  53.1095628  64.4835679  91.1656990
  52.8160356  63.1197288  91.7536300  44.5696049  53.4647759  93.4188042
  43.9223964  54.1637709  93.3252519  45.3397064  53.8983903  93.7864290
  47.9774846  63.7296611  96.4938595  47.8260353  63.5007163  95.5768679
  47.9679526  64.6867213  96.5069940  44.7460183  61.3028524  91.4784862
  45.6752243  61.4539684  91.3053829  44.3251213  61.3912545  90.6233508
  43.5448515  65.3279189  89.2483400  43.4059600  64.9597973  90.1209338
  42.7563111  65.8426828  89.0767357  44.1396667  70.4288285  80.5908936
  44.3148422  69.9576328  81.4054559  43.4529455  71.0554051  80.8190197
  45.0953730  64.7060791  86.6372237  44.7603562  64.6661561  87.5329887
  44.5957676  64.0405507  86.1642648  39.0697974  60.1128421  92.1624818
  38.9317772  59.3808660  92.7636357  39.9802897  60.0237321  91.8809006
  48.0312921  62.0516826  76.9109297  47.4142092  61.3263654  76.8142350
  47.5629410  62.8126186  76.5676371  41.6980274  59.8248381  91.6508498
  42.4079893  59.1841573  91.6095117  41.6549583  60.0761276  92.5734679
  49.6867053  66.7615734  94.5715077  49.6279599  66.0774954  93.9045660
  50.0886572  67.5034724  94.1195703  40.4109208  56.8113599  93.4704138
  39.8746565  56.3604337  94.1225734  39.8225917  56.9459507  92.7274602
  38.7057752  73.5777648  87.3648796  38.9454350  74.2096172  88.0427815
  37.8626948  73.2265688  87.6514155  39.8211467  56.2702250  76.0330601
  38.9440934  56.1491051  75.6692848  40.2969220  55.4788328  75.7809490
  49.6884460  64.7255318  92.8029057  48.8011239  64.3881240  92.9255456
  50.2583011  63.9938349  93.0397822  31.3413608  61.0579410  86.1272108
  32.0284647  60.7441140  85.5393124  31.1861736  61.9620774  85.8539360
  36.1448330  55.9469606  90.5557132  36.0606518  55.3395276  89.8207542
  35.3231036  56.4378625  90.5566628  43.2185614  69.3856770  89.7690300
  43.1455785  70.1911742  90.2809605  42.7763007  69.5848736  88.9438322
  43.0075393  68.6228540  83.2793122  42.2242915  69.1650221  83.3731346
  43.7068139  69.1402520  83.6787363  46.3172044  54.4323170  85.9227327
  46.8140743  53.6793132  85.6028397  45.5459025  54.4687486  85.3570536
  54.1701801  60.1363535  87.5645619  54.1591677  61.0188251  87.1939552
  53.3019180  59.7835086  87.3700156  45.6784297  69.2843604  91.9248459
  46.3912270  69.9191069  91.8524360  45.1874326  69.3807470  91.1088461
  47.4001824  63.1894857  83.4965751  46.4658103  63.3096319  83.3270455
  47.5778493  62.2867324  83.2325760  42.9007012  56.5740553  85.6499012
  42.5304800  56.0211593  86.3379917  43.3966105  55.9698686  85.0974012
  50.7874376  59.0312176  84.0315785  51.2534828  59.8640168  83.9576087
  51.2381876  58.5657158  84.7361043  40.7296211  67.0338048  92.7454030
  41.4305670  67.6674531  92.8983424  40.2591326  67.3752779  91.9849669
  48.8550607  65.3755998  81.0301937  49.1310451  65.2612592  81.9395811
  47.9855105  64.9773482  80.9914110  48.7591038  51.3992763  88.0706686
  47.8454118  51.6296990  88.2388893  49.1884140  51.4831207  88.9220718
  48.5297497  59.5882655  90.5706580  47.8768947  59.8358563  89.9159033
  48.9077877  58.7746793  90.2369057  45.4904671  69.6242348  84.6734750
  45.6727065  68.8064004  85.1362503  46.3137657  69.8410041  84.2359640
  45.8246836  68.5510534  81.9349799  46.3534603  68.0402988  81.3219961
  46.0875056  68.2353064  82.7995332  44.5785070  60.3302466  97.0572617
  43.9025707  60.2296596  97.7274992  45.4012704  60.1741680  97.5208614
  36.3263929  66.5674403  89.6785132  36.9117366  65.8218091  89.8113037
  36.1288767  66.8778360  90.5621796  39.1802584  69.6025650  84.6947575
  38.5112959  70.0871778  84.2111615  39.0415454  69.8494871  85.6090953
  30.9181584  59.1380003  88.3989576  30.9565683  58.6043594  89.1926694
  30.4121876  58.6115209  87.7800553  43.3207853  71.6369394  91.2930233
  43.8726161  71.8001015  92.0579318  43.6614046  72.2273832  90.6210258
  38.2972346  53.9844544  91.8952118  38.3613672  54.8459374  91.4829515
  38.2339466  53.3718545  91.1624476  37.7724618  56.0567676  95.5425152
  38.3996657  55.6744753  96.1562676  36.9152537  55.8381878  95.9080845
  48.1718727  66.4630651  97.1478888  48.7158631  67.0760610  96.6533842
  47.5905572  67.0210230  97.6645901  34.5490161  57.8644105  81.4743507
  34.8443602  56.9554784  81.4210561  33.6478197  57.8431845  81.1524509
  46.4576240  69.5851369  88.2793915  46.3327379  68.7841109  87.7704861
  47.1155331  70.0797563  87.7907885  38.0784408  55.9400102  87.4571055
  37.3570994  56.5536069  87.3178529  38.8677664  56.4757867  87.3787701
  48.5211148  67.3860389  89.9073465  47.5741484  67.2665741  89.8351792
  48.8693921  66.4982887  89.9899727  40.8810722  53.2754528  93.7311707
  41.4045124  53.5216825  94.4938017  40.6623055  54.1074563  93.3114845
  36.2778003  55.5458203  81.5982832  35.9490709  54.6655582  81.4157938
  36.6317374  55.4905872  82.4859221  45.5257582  67.1813106  86.1077818
  45.3782544  66.2529813  86.2885388  46.3511075  67.2033196  85.6234893
  39.3919826  55.8331173  81.9658310  39.7315898  56.3617094  81.2436918
  39.8391946  56.1711579  82.7416876  49.1291704  68.0041664  87.1942690
  50.0538251  67.7984526  87.0567141  48.9607007  67.7558065  88.1032032
  42.0863267  54.2168223  91.4161378  41.7460087  53.4176036  91.8182058
  41.3802273  54.5169934  90.8438211  42.7379739  51.3017536  89.8688701
  43.5605808  50.8278014  89.7467591  42.9817802  52.0808020  90.3687387
  41.3787973  54.3305794  80.1651602  42.0996336  54.7087047  79.6615319
  40.7553277  55.0494671  80.2686580  45.5219096  55.0350943  81.1009935
  45.7382710  55.9175581  80.7998763  45.0413163  54.6437157  80.3715577
  40.2618317  57.9936656  87.6780679  40.1162898  58.3076960  88.5704961
  39.7843521  58.6121557  87.1251578  42.1214700  54.9839204  87.7261569
  42.1076269  54.0880298  87.3893867  42.8387128  54.9909868  88.3599855
  43.9740831  55.4176545  89.7714696  43.7158609  56.3393615  89.7699027
  43.4425871  55.0206979  90.4615161  48.9187020  68.5227332  82.5504782
  49.0923897  67.9573754  81.7978634  49.4115911  69.3228227  82.3684272
  34.7363980  60.5342001  90.6168341  34.1917448  61.3101809  90.7488615
  35.6143329  60.8812805  90.4587462  41.5251596  53.8653585  82.9949139
  41.6467507  52.9370231  83.1940027  41.2353639  53.8792271  82.0827455
  44.3942787  51.5508495  86.1315859  44.4164483  51.6147828  85.1767838
  44.8110846  50.7113004  86.3256365  54.7726411  61.2863755  84.1695082
  55.2157557  60.5371080  83.7714205  53.8952921  61.2773891  83.7868814
  49.9062192  67.8394096  79.6501680  50.6013097  68.4600789  79.8688995
  50.2485342  66.9889447  79.9254058  35.5230001  59.6611897  93.5098497
  34.7811737  59.8094532  94.0963128  35.2022746  59.9220163  92.6465247
  51.8053615  65.2893802  81.1789011  52.3304939  65.6281074  80.4538331
  51.7175968  64.3540817  80.9952145  43.4673664  69.2027875  93.3078887
  43.7760790  68.9577022  94.1801587  44.2649146  69.4074514  92.8197758
  43.4894276  71.3565785  85.5384264  43.0499266  70.8642164  86.2317121
  44.2402393  70.8138753  85.2976339  35.9686615  67.5477326  85.5408892
  36.7944635  67.2481098  85.1607536  35.6180667  66.7784948  85.9898681
  40.9368148  66.9003794  87.6106566  40.3148158  66.2374499  87.3108794
  41.6073015  66.9264926  86.9280213  34.1695220  65.4663652  86.4997826
  33.3327128  65.0385827  86.3181827  34.1418866  65.6596096  87.4368617
  41.0092676  55.3785582  97.2039072  41.0580831  56.2547705  96.8216841
  41.5515190  54.8362975  96.6310715  51.4947521  65.9226705  96.4840209
  50.7043065  65.9050844  95.9444708  51.2580876  66.4614999  97.2389245
  51.6145396  62.7719172  93.7972937  51.6643401  62.6069179  94.7388460
  51.5059320  61.9046431  93.4070818  40.4981655  65.4507717  81.0865026
  40.6469776  66.1343182  80.4331699  41.3048099  65.4312807  81.6014482
  48.9049159  58.7550100  95.1132244  49.8059022  58.6156565  94.8216242
  48.9797133  58.9204555  96.0530421  43.2391964  56.1316954  93.9585430
  42.3695274  56.4250521  93.6868019  43.4751445  56.7157399  94.6792694
  53.1163593  65.1916113  94.0414959  52.8248402  65.5546094  94.8778420
  52.5035725  64.4783122  93.8628291  54.3159276  62.7568993  86.5617529
  55.1506167  63.1958797  86.7255089  54.4518404  62.2807646  85.7425775
  51.3650782  60.3148728  92.5095017  51.8404903  60.5076374  91.7013868
  50.4416347  60.3707914  92.2638401  38.2534288  61.4772895  82.0926095
  38.0080330  60.5735225  82.2906305  38.4230203  61.4790045  81.1505573
  45.9430998  52.3496571  91.4750851  46.4612942  53.0857598  91.1497339
  45.5886131  52.6560565  92.3097610  37.5229936  57.2101253  79.5912257
  36.8299181  57.2845608  78.9352293  37.2781688  56.4461596  80.1133774
  46.1943592  48.7696854  86.9951747  46.4745346  48.1020043  87.6212174
  46.9794199  48.9625950  86.4826411  43.9977061  67.9455848  78.5576774
  43.4251028  68.5646035  78.1047246  44.5709854  68.4955210  79.0916696
  50.0652451  57.1914488  90.7423322  51.0169873  57.2912586  90.7635546
  49.8955901  56.3992756  91.2521407  48.0866830  54.2770071  90.9282723
  47.4916762  54.5575084  90.2329212  47.8016527  54.7663972  91.6999464
  47.2174320  68.2292998  79.6885356  48.1504994  68.1638560  79.8918231
  47.1297533  69.0649265  79.2299889  49.8462337  67.5458868  76.6489303
  49.7675969  67.2118732  77.5425061  50.6672004  68.0380636  76.6480776
  52.5440528  60.4120608  89.8565622  52.5116848  59.4736608  90.0425306
  53.1541152  60.4904644  89.1231447  52.6935017  57.2031651  89.9023905
  52.1774065  56.4190108  89.7153834  53.5774965  56.8750368  90.0670425
  50.3545744  50.9472667  85.8619718  50.1570565  50.6387755  86.7463050
  50.9645449  51.6734306  85.9917648  58.3617078  61.4736614  88.9971659
  59.0920467  61.2121903  89.5579362  57.7524024  60.7365336  89.0373727
  56.4432375  59.6144477  89.5946110  55.7165539  59.4800442  88.9862602
  56.0279662  59.9221306  90.4002828  44.2662552  63.3334407  97.3593483
  45.1865561  63.5113006  97.5533530  44.2312135  62.3890452  97.2073182
  42.5666776  57.2066637  75.8347711  41.6598232  56.9099750  75.9110425
  42.8442757  56.9096455  74.9681998  33.4844717  58.5273000  86.2846758
  33.1647501  57.6738309  85.9921132  32.9378145  58.7421579  87.0404725
  37.2624624  61.2435441  90.0016264  37.4810634  62.1752549  90.0204298
  37.6750398  60.8843416  90.7871068  44.1828842  51.7503527  81.9891953
  43.3729570  51.4050612  82.3647199  44.8713259  51.4411070  82.5779564
  46.1119390  50.8281574  83.6116249  46.6650429  51.2477027  84.2706272
  46.3489477  49.9017322  83.6539205  42.1352490  56.8168647  99.3919013
  42.0349216  57.7663004  99.3231104  41.9174032  56.4886886  98.5195083
  33.3532977  62.1475912  88.2539879  32.6596448  61.7329865  87.7409834
  34.1005968  62.1896448  87.6573298  49.4898197  52.9382099  83.1194914
  48.9096866  53.5966903  82.7372966  49.2234130  52.1159443  82.7082331
  47.9401764  52.3387156  85.3216234  48.4401542  52.4503691  84.5130553
  48.5837372  52.0348209  85.9617042  41.9983760  60.2465786  98.2084075
  41.5150841  61.0466146  98.4147964  42.0844699  60.2573731  97.2551519
  35.2669719  62.0794166  86.1305894  35.2440407  62.1781853  85.1787777
  35.5770356  62.9259316  86.4523060  37.9257097  64.1370321  90.2452509
  38.8800351  64.1054263  90.1782440  37.7269621  63.6760944  91.0602735
  38.5156479  62.7071437  92.8123306  39.3349368  63.2015515  92.8358144
  38.7893287  61.7903405  92.7840874  48.2723075  55.0982189  82.1751262
  47.3848930  55.3831840  81.9571457  48.6877065  54.9375952  81.3278539
  51.6237612  55.1228710  85.8905601  52.3998002  55.6125162  86.1630218
  50.8985746  55.5486764  86.3477471  54.0610170  55.8356329  86.9479542
  54.6554661  55.5952065  86.2372850  54.1336754  55.1163460  87.5753078
  36.2807326  69.6789940  87.2622707  36.1461794  68.9190341  86.6960705
  35.8639388  70.4030840  86.7951495  48.2464099  60.6136725  82.3901552
  48.1899301  61.0705276  81.5509184  48.7992442  59.8527410  82.2124395
  52.0568905  56.4026457  83.2151671  51.8005839  56.0023093  84.0459879
  51.4321773  57.1170251  83.0901811  39.4376452  70.5759257  87.4741149
  39.3208836  71.5204690  87.3719839  38.6168898  70.2732819  87.8626948
  49.3252986  65.3009393  78.3197742  50.1598590  64.8690591  78.1375217
  49.1637329  65.1291407  79.2474636  48.9798879  61.8041506  79.6854081
  48.9247682  61.6385778  78.7442525  48.3544934  62.5117539  79.8416271
  33.7691393  57.0409571  93.5115503  34.4150257  56.5308525  94.0002729
  33.5608545  57.7778252  94.0858929  46.2944786  64.1090418  99.0107644
  47.1635945  64.2831070  98.6494279  45.8151537  64.9284835  98.8883373
  42.2895004  51.3049615  79.2639400  42.2773674  52.2491455  79.4207670
  43.1818426  51.1219761  78.9698861  40.4630966  71.2287519  90.6897078
  41.3658213  71.2611129  91.0063573  40.2368336  70.2987970  90.7043413
  42.2184568  69.9818506  87.3507156  41.2680199  69.9820367  87.2371528
  42.5217054  69.2351240  86.8343191  46.1047123  47.8992392  83.5185336
  45.3379519  47.3450879  83.6642019  46.5157828  47.9714261  84.3799488
  38.1088884  54.1877188  97.6090518  38.9720346  53.8313993  97.8193842
  37.5354295  53.8491083  98.2965922  57.9537261  75.8179044  88.4152919
  58.5915671  75.6985791  87.7116259  57.8358104  76.7659888  88.4740871
  54.7626968  75.7706472  88.3514443  54.4245479  75.6547537  87.4634978
  55.6316736  75.3697637  88.3315449  50.6213783  77.6241949  84.3411334
  50.0578649  77.5331885  83.5727622  50.5066178  76.8041853  84.8213827
  55.2446751  76.9241324  94.3100649  55.2335391  76.5294122  93.4381152
  55.4067390  76.1907396  94.9034420  48.1678215  79.1193140  87.1795555
  48.9599507  78.7783965  86.7641854  48.4074865  79.2288115  88.0997708
  56.2013342  81.2912916  79.6525799  55.5501322  81.8766997  79.2659813
  56.9957705  81.8219111  79.7120837  50.1268969  78.3802053  80.0512934
  50.8999845  77.8331040  79.9125809  50.4794368  79.2446303  80.2627395
  51.9654012  79.7078436  93.2579833  51.6743878  80.6124067  93.1426499
  52.6010996  79.7494963  93.9723902  52.8910219  77.0855284  89.8481192
  53.4873791  76.8611307  89.1338155  52.9485190  76.3440030  90.4506640
  52.4635247  74.5394720  77.6831383  52.7160768  74.0176241  76.9214846
  51.5259806  74.3760865  77.7858067  57.5078530  73.5430498  85.4906127
  58.2941619  73.1249921  85.1396544  57.7717234  74.4476590  85.6587775
  57.6788607  78.9803348  80.1894783  57.0434440  79.0537975  80.9015688
  57.3486014  79.5696947  79.5113863  62.9086957  73.4805731  86.3939105
  63.6412129  72.9104948  86.6276935  62.1526313  73.0927332  86.8345611
  52.1831536  76.4422825  79.8855758  52.0667794  75.7667729  80.5536843
  52.2933796  75.9555199  79.0687911  54.5263077  75.9032973  83.5902448
  54.1621284  75.3763594  84.3015369  55.3830193  75.5131442  83.4168933
  60.4312377  67.1927305  90.8533714  60.0995702  68.0622716  90.6294929
  59.8357991  66.8763589  91.5327744  56.9243897  79.3939851  90.2529626
  56.6244620  80.2964890  90.1445434  56.5794956  79.1272034  91.1050779
  50.3756378  75.8453648  86.2866331  49.4506875  75.7129862  86.4944023
  50.6240792  76.6247867  86.7836273  60.3241041  71.9122391  87.9327064
  59.4157918  71.8437800  87.6385825  60.2728636  72.3894336  88.7608889
  54.1457785  73.3880530  79.5710463  54.0257410  73.8337581  80.4095943
  53.4510373  73.7365847  79.0124001  47.7365189  75.4886922  87.1210120
  47.8657571  75.7421401  88.0349532  47.0562641  76.0814630  86.8014775
  51.9064677  86.1584172  83.2200594  51.8288706  87.1091997  83.2989075
  51.3026320  85.8130044  83.8775520  54.3981906  73.3312037  95.8761961
  53.6215241  73.8905957  95.8664826  55.0372470  73.8168820  96.3976831
  62.1902687  70.1138830  89.7104938  61.5477067  70.4071363  89.0644732
  61.6857616  69.9991750  90.5158134  59.8442851  73.8602003  80.3990797
  60.7560707  74.0929390  80.2238495  59.3352498  74.4439047  79.8365876
  52.6528279  76.1397490  95.4379928  53.3942963  76.6782534  95.1614752
  51.9465264  76.7663779  95.5951480  58.1283618  78.2826631  94.0352090
  58.5366974  77.8409041  93.2906722  57.4060880  77.7079258  94.2886282
  54.4814688  73.2199238  91.4085647  55.3275884  73.6438651  91.5520296
  54.4213326  72.5632862  92.1024210  58.4512433  78.8427821  87.7904378
  57.8221296  79.0073536  87.0880446  58.0638095  79.2569431  88.5615342
  62.3301665  79.7782259  85.1448742  61.6452703  80.1581161  84.5945776
  62.4145514  80.3877586  85.8780690  57.6314134  70.8803606  93.0666820
  57.3875066  71.6345666  92.5301096  57.9074064  71.2588954  93.9014067
  59.5852597  77.4242218  91.7444086  59.7969492  78.0673978  91.0678467
  59.5382345  76.5904535  91.2766016  57.1878826  70.0360039  88.6480658
  56.3263305  70.3341292  88.9397395  57.2141260  70.2530438  87.7161691
  54.0040395  78.5802229  85.0554464  54.4678740  78.8589932  84.2659086
  53.7397193  77.6785674  84.8727554  50.8964476  78.1273711  87.9934227
  51.4665833  78.5560979  87.3551711  51.4872588  77.8456296  88.6918412
  52.9409281  74.7025382  81.8644029  53.6433324  75.1546426  82.3317955
  52.6089910  74.0609201  82.4923922  51.3889643  73.2937138  96.2395238
  50.7588303  73.9753419  96.4730635  51.2825730  73.1820220  95.2948376
  46.6834615  72.9608935  87.1661162  45.8933669  73.2166463  86.6901273
  47.1745862  73.7757272  87.2713203  60.6998425  80.3014174  89.9166443
  61.5215868  79.8994361  89.6349125  60.6960827  80.1982408  90.8682559
  48.6349360  73.3253514  84.1244639  47.8380524  73.4372208  84.6428135
  48.4074953  73.6640166  83.2585529  54.4655028  79.8498217  92.0727154
  54.5299460  80.3118624  92.9085325  53.7565952  79.2195582  92.2009463
  44.9672318  73.2139425  89.5976153  45.2180356  74.0986435  89.8633729
  45.5031866  73.0344027  88.8251245  68.7904418  76.6452922  86.2651415
  68.0368126  76.0760320  86.1095419  68.9251959  76.6115587  87.2122049
  54.1803046  81.5166324  81.9406134  54.0448720  82.3617860  82.3690982
  54.7212858  81.7185602  81.1772068  50.6670385  67.5957904  98.6020489
  50.2737331  67.0424103  99.2768133  51.4836526  67.9068483  98.9927007
  47.6332443  79.0341763  82.5134059  48.1456964  79.8285013  82.6639624
  48.2855156  78.3368053  82.4467660  49.4427328  82.1507519  84.5956812
  49.6193956  83.0725484  84.4077796  50.2384161  81.8365938  85.0251192
  53.5838346  69.0115783  96.1940746  54.3248060  69.6122937  96.1145208
  53.8156269  68.2693421  95.6358788  48.7279684  74.1972151  94.4718975
  48.6133199  73.2957408  94.7726074  47.8724202  74.4435847  94.1203792
  55.8071522  82.1389891  96.0706476  55.3635376  81.3526270  95.7527380
  56.4688736  82.3269042  95.4050367  50.5658643  83.6685693  90.5967155
  51.1166068  83.5402756  89.8244148  49.7270119  83.9680582  90.2462047
  57.9052760  82.4192691  94.0987877  57.8871235  83.2401572  93.6068146
  58.8272680  82.2946766  94.3238018  54.3625814  79.9336820  94.9411386
  54.8954151  79.1725109  94.7110694  53.8339895  79.6410472  95.6835540
  57.5295509  65.0396886  90.4705027  57.1859779  65.9298528  90.3944138
  57.8974472  64.8498544  89.6074612  45.5981360  77.3630417  83.2893630
  46.4356582  77.7727425  83.0727337  45.7759628  76.4229859  83.2593823
  57.4945792  75.0305497  78.9777463  56.9792415  75.8010102  79.2165850
  57.2223100  74.3570634  79.6010524  55.0792903  69.8755198  84.0362701
  54.2234499  69.4862049  83.8568340  55.4919855  69.9547159  83.1762486
  56.6092050  67.4101542  88.4354261  56.1056845  67.3731677  87.6222066
  56.9022656  68.3194284  88.4950917  52.8534935  67.4940271  87.4420442
  53.7187932  67.2983080  87.0826332  52.9212444  67.2650623  88.3689799
  62.4680066  77.7837852  80.9130636  61.6909509  77.4449012  80.4685798
  63.1471547  77.7890475  80.2385601  57.2832095  72.9032590  80.8037244
  56.9782231  73.2178739  81.6547387  58.2362537  72.9814009  80.8464577
  55.7278527  79.0622813  82.4530198  55.1999889  78.3275572  82.1403435
  55.2266030  79.8397489  82.2070166  60.7071373  77.2571833  87.5697244
  60.0495047  77.9471095  87.6577373  61.5111772  77.6468265  87.9131230
  50.4597255  69.7242479  84.8136809  51.0341006  69.5017661  84.0810002
  51.0468237  69.7931174  85.5665410  59.5176832  75.6116206  85.6201186
  60.0308714  76.2446198  86.1222895  60.1678056  75.0117402  85.2544546
  50.7866842  71.7546940  78.8332694  49.9504154  72.0921627  79.1541969
  50.6471611  71.6195920  77.8959831  52.7619922  66.5983728  83.5411879
  52.1084335  66.2832745  82.9168493  52.7200396  65.9759469  84.2671702
  53.8731127  76.8803023  75.4565171  52.9658189  76.6492277  75.6556320
  54.3702159  76.0840642  75.6439152  56.7799206  85.5900530  78.3761857
  56.1060905  85.8932227  78.9846815  57.1665028  86.3929611  78.0267314
  55.9957663  73.0865662  87.8659526  55.0780224  73.3080609  87.7081214
  56.4117806  73.1611972  87.0071234  56.7792710  74.4857077  82.9962206
  57.5264529  74.9978475  82.6869329  57.0484300  74.1641130  83.8566600
  55.0519361  76.9815618  79.9789161  54.1430580  76.6974651  80.0761631
  55.0814444  77.4014697  79.1192468  60.2838628  80.5922208  83.7480328
  59.8300955  79.7513117  83.8045519  59.6532595  81.2283606  84.0855108
  59.2271548  71.5214194  84.9780996  58.4894304  71.0091580  85.3091238
  59.4798321  71.0814575  84.1664273  58.7271567  82.4298704  84.6830146
  59.0194542  82.9903761  83.9642512  59.2370188  82.7227265  85.4383306
  59.3283175  64.2990446  85.5722765  59.6342052  63.4387809  85.2848680
  60.0535780  64.8908066  85.3721759  45.6207531  74.7021132  83.9604363
  45.4231931  74.1090493  83.2355430  45.0654195  74.3973342  84.6780302
  53.6004255  74.5944239  86.0798956  53.6552864  73.6418075  86.0041433
  52.7895457  74.7503678  86.5640255  54.7495448  78.5224362  77.3177239
  54.3114878  77.8060221  76.8582877  55.4905889  78.7500477  76.7562331
  51.5396615  73.2121298  83.8389335  50.7264480  73.5115469  84.2454527
  52.0355609  72.8176987  84.5563817  53.6905192  83.2079055  85.7723600
  53.6481371  83.4339902  84.8432132  54.6067891  82.9742430  85.9209401
  57.1370826  73.6763123  92.6704229  57.4920214  73.9034596  93.5298695
  57.7842957  74.0081500  92.0481484  62.8668563  76.7981559  83.3753558
  62.7286462  76.9883155  82.4474747  62.5104782  77.5600942  83.8321609
  51.0310689  70.7839654  89.4550570  51.6710069  70.6428413  88.7573533
  50.1988220  70.4974167  89.0789172  62.8937943  78.8658086  88.3864829
  63.3274449  78.7733375  89.2347883  63.6069523  78.8415586  87.7484845
  51.8070993  80.0842084  85.5685562  52.6011592  79.5892404  85.3668137
  51.0962686  79.5559947  85.2053268  56.6265838  82.4660180  89.9197930
  56.6802860  83.0351116  90.6875646  55.7580619  82.6362065  89.5551967
  48.1153757  74.2285166  81.6445315  47.1851345  74.1669622  81.8615277
  48.2111229  73.7061119  80.8481956  48.0339306  70.7539979  84.2323557
  48.2946123  71.6685312  84.1232717  48.8556478  70.2864421  84.3820170
  49.5064231  72.1677736  91.4022381  50.1787284  71.9595098  90.7535030
  48.6794018  71.9699822  90.9627614  63.7553492  78.9081786  90.9197715
  63.9489382  79.8127597  91.1656990  63.6554110  78.4489205  91.7536300
  55.4089803  68.7939677  93.4188042  54.7617718  69.4929627  93.3252519
  56.1790818  69.2275821  93.7864290  58.8168601  79.0588529  96.4938595
  58.6654107  78.8299081  95.5768679  58.8073280  80.0159131  96.5069940
  55.5853937  76.6320442  91.4784862  56.5145997  76.7831601  91.3053829
  55.1644967  76.7204463  90.6233508  54.3842269  80.6571106  89.2483400
  54.2453355  80.2889891  90.1209338  53.5956865  81.1718746  89.0767357
  54.9790421  85.7580203  80.5908936  55.1542177  85.2868246  81.4054559
  54.2923209  86.3845969  80.8190197  55.9347484  80.0352709  86.6372237
  55.5997317  79.9953479  87.5329887  55.4351430  79.3697425  86.1642648
  49.9091728  75.4420339  92.1624818  49.7711526  74.7100578  92.7636357
  50.8196652  75.3529239  91.8809006  58.8706676  77.3808743  76.9109297
  58.2535847  76.6555572  76.8142350  58.4023164  78.1418104  76.5676371
  52.5374029  75.1540298  91.6508498  53.2473647  74.5133491  91.6095117
  52.4943337  75.4053193  92.5734679  60.5260808  82.0907652  94.5715077
  60.4673354  81.4066872  93.9045660  60.9280326  82.8326642  94.1195703
  51.2502963  72.1405516  93.4704138  50.7140320  71.6896255  94.1225734
  50.6619671  72.2751425  92.7274602  49.5451506  88.9069566  87.3648796
  49.7848105  89.5388090  88.0427815  48.7020703  88.5557606  87.6514155
  50.6605222  71.5994168  76.0330601  49.7834688  71.4782968  75.6692848
  51.1362975  70.8080246  75.7809490  60.5278215  80.0547236  92.8029057
  59.6404994  79.7173157  92.9255456  61.0976766  79.3230267  93.0397822
  42.1807362  76.3871327  86.1272108  42.8678402  76.0733057  85.5393124
  42.0255491  77.2912692  85.8539360  46.9842084  71.2761524  90.5557132
  46.9000273  70.6687193  89.8207542  46.1624791  71.7670542  90.5566628
  54.0579368  84.7148688  89.7690300  53.9849540  85.5203659  90.2809605
  53.6156761  84.9140654  88.9438322  53.8469148  83.9520458  83.2793122
  53.0636670  84.4942138  83.3731346  54.5461893  84.4694438  83.6787363
  57.1565798  69.7615087  85.9227327  57.6534498  69.0085050  85.6028397
  56.3852780  69.7979404  85.3570536  65.0095555  75.4655453  87.5645619
  64.9985432  76.3480168  87.1939552  64.1412935  75.1127004  87.3700156
  56.5178052  84.6135522  91.9248459  57.2306024  85.2482987  91.8524360
  56.0268080  84.7099388  91.1088461  58.2395579  78.5186775  83.4965751
  57.3051857  78.6388237  83.3270455  58.4172247  77.6159241  83.2325760
  53.7400767  71.9032470  85.6499012  53.3698554  71.3503511  86.3379917
  54.2359859  71.2990604  85.0974012  61.6268130  74.3604094  84.0315785
  62.0928582  75.1932086  83.9576087  62.0775631  73.8949076  84.7361043
  51.5689965  82.3629965  92.7454030  52.2699425  82.9966448  92.8983424
  51.0985080  82.7044697  91.9849669  59.6944361  80.7047915  81.0301937
  59.9704205  80.5904510  81.9395811  58.8248860  80.3065400  80.9914110
  59.5984793  66.7284681  88.0706686  58.6847873  66.9588908  88.2388893
  60.0277894  66.8123125  88.9220718  59.3691251  74.9174573  90.5706580
  58.7162702  75.1650480  89.9159033  59.7471631  74.1038711  90.2369057
  56.3298425  84.9534266  84.6734750  56.5120820  84.1355922  85.1362503
  57.1531411  85.1701958  84.2359640  56.6640591  83.8802451  81.9349799
  57.1928357  83.3694906  81.3219961  56.9268810  83.5644981  82.7995332
  55.4178824  75.6594384  97.0572617  54.7419461  75.5588513  97.7274992
  56.2406458  75.5033598  97.5208614  47.1657683  81.8966321  89.6785132
  47.7511120  81.1510008  89.8113037  46.9682522  82.2070277  90.5621796
  50.0196339  84.9317568  84.6947575  49.3506714  85.4163696  84.2111615
  49.8809208  85.1786788  85.6090953  41.7575338  74.4671921  88.3989576
  41.7959438  73.9335511  89.1926694  41.2515631  73.9407126  87.7800553
  54.1601607  86.9661311  91.2930233  54.7119915  87.1292933  92.0579318
  54.5007801  87.5565749  90.6210258  49.1366100  69.3136461  91.8952118
  49.2007427  70.1751292  91.4829515  49.0733221  68.7010463  91.1624476
  48.6118373  71.3859594  95.5425152  49.2390412  71.0036671  96.1562676
  47.7546292  71.1673796  95.9080845  59.0112482  81.7922569  97.1478888
  59.5552386  82.4052527  96.6533842  58.4299326  82.3502147  97.6645901
  45.3883916  73.1936023  81.4743507  45.6837357  72.2846701  81.4210561
  44.4871951  73.1723762  81.1524509  57.2969994  84.9143287  88.2793915
  57.1721134  84.1133027  87.7704861  57.9549086  85.4089480  87.7907885
  48.9178163  71.2692019  87.4571055  48.1964748  71.8827987  87.3178529
  49.7071418  71.8049784  87.3787701  59.3604903  82.7152307  89.9073465
  58.4135238  82.5957658  89.8351792  59.7087676  81.8274805  89.9899727
  51.7204476  68.6046446  93.7311707  52.2438878  68.8508742  94.4938017
  51.5016810  69.4366481  93.3114845  47.1171757  70.8750121  81.5982832
  46.7884463  69.9947499  81.4157938  47.4711128  70.8197789  82.4859221
  56.3651336  82.5105023  86.1077818  56.2176299  81.5821731  86.2885388
  57.1904830  82.5325114  85.6234893  50.2313580  71.1623090  81.9658310
  50.5709653  71.6909012  81.2436918  50.6785701  71.5003496  82.7416876
  59.9685458  83.3333582  87.1942690  60.8932005  83.1276443  87.0567141
  59.8000761  83.0849983  88.1032032  52.9257021  69.5460141  91.4161378
  52.5853842  68.7467954  91.8182058  52.2196028  69.8461852  90.8438211
  53.5773493  66.6309453  89.8688701  54.3999562  66.1569932  89.7467591
  53.8211557  67.4099937  90.3687387  52.2181728  69.6597712  80.1651602
  52.9390090  70.0378965  79.6615319  51.5947032  70.3786589  80.2686580
  56.3612850  70.3642861  81.1009935  56.5776465  71.2467499  80.7998763
  55.8806918  69.9729074  80.3715577  51.1012072  73.3228574  87.6780679
  50.9556653  73.6368877  88.5704961  50.6237276  73.9413474  87.1251578
  52.9608455  70.3131122  87.7261569  52.9470024  69.4172215  87.3893867
  53.6780883  70.3201786  88.3599855  54.8134585  70.7468462  89.7714696
  54.5552363  71.6685533  89.7699027  54.2819626  70.3498897  90.4615161
  59.7580774  83.8519249  82.5504782  59.9317652  83.2865672  81.7978634
  60.2509665  84.6520144  82.3684272  45.5757734  75.8633919  90.6168341
  45.0311202  76.6393726  90.7488615  46.4537084  76.2104723  90.4587462
  52.3645351  69.1945502  82.9949139  52.4861262  68.2662149  83.1940027
  52.0747393  69.2084188  82.0827455  55.2336541  66.8800413  86.1315859
  55.2558238  66.9439746  85.1767838  55.6504600  66.0404921  86.3256365
  65.6120165  76.6155672  84.1695082  66.0551311  75.8662998  83.7714205
  64.7346676  76.6065809  83.7868814  60.7455947  83.1686014  79.6501680
  61.4406851  83.7892707  79.8688995  61.0879097  82.3181365  79.9254058
  46.3623756  74.9903815  93.5098497  45.6205492  75.1386450  94.0963128
  46.0416500  75.2512080  92.6465247  62.6447370  80.6185719  81.1789011
  63.1698694  80.9572992  80.4538331  62.5569722  79.6832735  80.9952145
  54.3067419  84.5319793  93.3078887  54.6154545  84.2868940  94.1801587
  55.1042901  84.7366431  92.8197758  54.3288031  86.6857703  85.5384264
  53.8893021  86.1934081  86.2317121  55.0796148  86.1430670  85.2976339
  46.8080370  82.8769244  85.5408892  47.6338389  82.5773015  85.1607536
  46.4574422  82.1076866  85.9898681  51.7761903  82.2295712  87.6106566
  51.1541912  81.5666417  87.3108794  52.4466770  82.2556844  86.9280213
  45.0088975  80.7955570  86.4997826  44.1720883  80.3677744  86.3181827
  44.9812620  80.9888013  87.4368617  51.8486430  70.7077500  97.2039072
  51.8974586  71.5839623  96.8216841  52.3908944  70.1654893  96.6310715
  62.3341276  81.2518623  96.4840209  61.5436820  81.2342762  95.9444708
  62.0974630  81.7906917  97.2389245  62.4539151  78.1011089  93.7972937
  62.5037156  77.9361097  94.7388460  62.3453074  77.2338348  93.4070818
  51.3375410  80.7799635  81.0865026  51.4863530  81.4635099  80.4331699
  52.1441853  80.7604725  81.6014482  59.7442913  74.0842017  95.1132244
  60.6452776  73.9448482  94.8216242  59.8190888  74.2496472  96.0530421
  54.0785719  71.4608872  93.9585430  53.2089028  71.7542438  93.6868019
  54.3145199  72.0449317  94.6792694  63.9557348  80.5208031  94.0414959
  63.6642156  80.8838011  94.8778420  63.3429479  79.8075039  93.8628291
  65.1553030  78.0860911  86.5617529  65.9899921  78.5250715  86.7255089
  65.2912159  77.6099564  85.7425775  62.2044536  75.6440646  92.5095017
  62.6798658  75.8368292  91.7013868  61.2810101  75.6999831  92.2638401
  49.0928043  76.8064813  82.0926095  48.8474085  75.9027143  82.2906305
  49.2623957  76.8081963  81.1505573  56.7824753  67.6788489  91.4750851
  57.3006696  68.4149516  91.1497339  56.4279885  67.9852482  92.3097610
  48.3623690  72.5393170  79.5912257  47.6692935  72.6137525  78.9352293
  48.1175442  71.7753514  80.1133774  57.0337347  64.0988772  86.9951747
  57.3139100  63.4311961  87.6212174  57.8187954  64.2917867  86.4826411
  54.8370815  83.2747766  78.5576774  54.2644782  83.8937953  78.1047246
  55.4103609  83.8247127  79.0916696  60.9046205  72.5206406  90.7423322
  61.8563628  72.6204503  90.7635546  60.7349655  71.7284674  91.2521407
  58.9260584  69.6061989  90.9282723  58.3310517  69.8867002  90.2329212
  58.6410281  70.0955890  91.6999464  58.0568075  83.5584916  79.6885356
  58.9898748  83.4930477  79.8918231  57.9691288  84.3941183  79.2299889
  60.6856092  82.8750786  76.6489303  60.6069723  82.5410650  77.5425061
  61.5065758  83.3672554  76.6480776  63.3834283  75.7412525  89.8565622
  63.3510603  74.8028526  90.0425306  63.9934906  75.8196562  89.1231447
  63.5328771  72.5323569  89.9023905  63.0167820  71.7482025  89.7153834
  64.4168720  72.2042285  90.0670425  61.1939498  66.2764584  85.8619718
  60.9964319  65.9679672  86.7463050  61.8039204  67.0026223  85.9917648
  69.2010833  76.8028532  88.9971659  69.9314221  76.5413820  89.5579362
  68.5917778  76.0657254  89.0373727  67.2826130  74.9436395  89.5946110
  66.5559293  74.8092360  88.9862602  66.8673417  75.2513223  90.4002828
  55.1056306  78.6626324  97.3593483  56.0259316  78.8404923  97.5533530
  55.0705889  77.7182370  97.2073182  44.3238471  73.8564918  86.2846758
  44.0041256  73.0030226  85.9921132  43.7771899  74.0713496  87.0404725
  48.1018379  76.5727359  90.0016264  48.3204389  77.5044467  90.0204298
  48.5144153  76.2135333  90.7871068  55.0222597  67.0795444  81.9891953
  54.2123325  66.7342529  82.3647199  55.7107013  66.7702988  82.5779564
  52.9746244  72.1460565  99.3919013  52.8742971  73.0954922  99.3231104
  52.7567786  71.8178804  98.5195083  52.1759315  69.3945490  75.9759691
  53.0378479  69.7200388  76.2355508  52.3609660  68.6076986  75.4632756
  44.1926731  77.4767830  88.2539879  43.4990203  77.0621782  87.7409834
  44.9399722  77.5188366  87.6573298  58.7795518  67.6679074  85.3216234
  59.2795297  67.7795609  84.5130553  59.4231126  67.3640127  85.9617042
  52.8377514  75.5757704  98.2084075  52.3544596  76.3758064  98.4147964
  52.9238453  75.5865649  97.2551519  46.1063474  77.4086083  86.1305894
  46.0834162  77.5073771  85.1787777  46.4164110  78.2551234  86.4523060
  48.7650852  79.4662238  90.2452509  49.7194105  79.4346181  90.1782440
  48.5663375  79.0052862  91.0602735  49.3550234  78.0363354  92.8123306
  50.1743123  78.5307433  92.8358144  49.6287041  77.1195323  92.7840874
  62.4631366  70.4520628  85.8905601  63.2391756  70.9417080  86.1630218
  61.7379500  70.8778682  86.3477471  64.9003925  71.1648247  86.9479542
  65.4948416  70.9243983  86.2372850  64.9730508  70.4455377  87.5753078
  47.1201080  85.0081858  87.2622707  46.9855548  84.2482259  86.6960705
  46.7033143  85.7322758  86.7951495  58.2560043  80.1918781  76.2699282
  58.9595894  80.3968784  76.8856937  57.5322692  80.7595543  76.5348365
  59.0857854  75.9428643  82.3901552  59.0293055  76.3997194  81.5509184
  59.6386196  75.1819327  82.2124395  62.8962660  71.7318375  83.2151671
  62.6399594  71.3315010  84.0459879  62.2715528  72.4462168  83.0901811
  67.2074997  74.4714448  85.7222963  66.6474555  74.5407637  86.4954525
  66.6018501  74.2955432  85.0022459  50.2770206  85.9051175  87.4741149
  50.1602590  86.8496607  87.3719839  49.4562653  85.6024736  87.8626948
  60.1646741  80.6301311  78.3197742  60.9992345  80.1982509  78.1375217
  60.0031084  80.4583324  79.2474636  59.8192633  77.1333424  79.6854081
  59.7641437  76.9677695  78.7442525  59.1938688  77.8409457  79.8416271
  44.6085148  72.3701488  93.5115503  45.2544012  71.8600442  94.0002729
  44.4002299  73.1070170  94.0858929  57.1338540  79.4382336  99.0107644
  58.0029700  79.6122988  98.6494279  56.6545292  80.2576753  98.8883373
  53.1288758  66.6341533  79.2639400  53.1167428  67.5783373  79.4207670
  54.0212180  66.4511678  78.9698861  51.3024720  86.5579437  90.6897078
  52.2051967  86.5903047  91.0063573  51.0762090  85.6279888  90.7043413
  53.0578322  85.3110423  87.3507156  52.1073953  85.3112285  87.2371528
  53.3610809  84.5643158  86.8343191  56.9440878  63.2284310  83.5185336
  56.1773274  62.6742796  83.6642019  57.3551583  63.3006178  84.3799488
  48.9482639  69.5169105  97.6090518  49.8114101  69.1605910  97.8193842
  48.3748050  69.1783000  98.2965922  68.7931016  91.1470962  88.4152919
  69.4309426  91.0277709  87.7116259  68.6751859  92.0951806  88.4740871
  65.6020722  91.0998390  88.3514443  65.2639234  90.9839455  87.4634978
  66.4710490  90.6989555  88.3315449  61.4607538  92.9533866  84.3411334
  60.8972403  92.8623803  83.5727622  61.3459933  92.1333771  84.8213827
  66.0840505  92.2533242  94.3100649  66.0729146  91.8586040  93.4381152
  66.2461145  91.5199314  94.9034420  59.0071970  94.4485058  87.1795555
  59.7993262  94.1075882  86.7641854  59.2468620  94.5580033  88.0997708
  67.0407097  96.6204834  79.6525799  66.3895076  97.2058914  79.2659813
  67.8351459  97.1511029  79.7120837  60.9662724  93.7093971  80.0512934
  61.7393600  93.1622958  79.9125809  61.3188123  94.5738220  80.2627395
  62.8047766  95.0370353  93.2579833  62.5137632  95.9415984  93.1426499
  63.4404751  95.0786881  93.9723902  63.7303973  92.4147202  89.8481192
  64.3267545  92.1903224  89.1338155  63.7878945  91.6731947  90.4506640
  63.3029002  89.8686637  77.6831383  63.5554522  89.3468158  76.9214846
  62.3653561  89.7052783  77.7858067  68.3472284  88.8722416  85.4906127
  69.1335374  88.4541839  85.1396544  68.6110989  89.7768508  85.6587775
  68.5182362  94.3095266  80.1894783  67.8828195  94.3829892  80.9015688
  68.1879768  94.8988865  79.5113863  73.7480712  88.8097649  86.3939105
  74.4805883  88.2396866  86.6276935  72.9920067  88.4219249  86.8345611
  63.0225290  91.7714743  79.8855758  62.9061548  91.0959647  80.5536843
  63.1327550  91.2847117  79.0687911  65.3656831  91.2324890  83.5902448
  65.0015038  90.7055511  84.3015369  66.2223947  90.8423359  83.4168933
  71.2706132  82.5219223  90.8533714  70.9389457  83.3914634  90.6294929
  70.6751745  82.2055507  91.5327744  65.0062318  86.2614790  78.5863796
  65.1736721  87.1295026  78.9534267  64.8159487  86.4242072  77.6625085
  67.7637651  94.7231769  90.2529626  67.4638374  95.6256808  90.1445434
  67.4188711  94.4563952  91.1050779  61.2150133  91.1745566  86.2866331
  60.2900629  91.0421780  86.4944023  61.4634546  91.9539785  86.7836273
  71.1634795  87.2414309  87.9327064  70.2551673  87.1729717  87.6385825
  71.1122391  87.7186254  88.7608889  64.9851539  88.7172447  79.5710463
  64.8651164  89.1629498  80.4095943  64.2904127  89.0657765  79.0124001
  58.5758944  90.8178839  87.1210120  58.7051325  91.0713318  88.0349532
  57.8956395  91.4106547  86.8014775  62.7458431 101.4876089  83.2200594
  62.6682461 102.4383914  83.2989075  62.1420075 101.1421962  83.8775520
  65.2375661  88.6603955  95.8761961  64.4608995  89.2197875  95.8664826
  65.8766224  89.1460738  96.3976831  73.0296442  85.4430747  89.7104938
  72.3870822  85.7363281  89.0644732  72.5251370  85.3283668  90.5158134
  70.6836605  89.1893921  80.3990797  71.5954461  89.4221307  80.2238495
  70.1746252  89.7730965  79.8365876  63.4922033  91.4689408  95.4379928
  64.2336718  92.0074452  95.1614752  62.7859019  92.0955697  95.5951480
  68.9677373  93.6118548  94.0352090  69.3760729  93.1700959  93.2906722
  68.2454634  93.0371176  94.2886282  65.3208443  88.5491155  91.4085647
  66.1669638  88.9730569  91.5520296  65.2607081  87.8924780  92.1024210
  69.2906188  94.1719739  87.7904378  68.6615050  94.3365453  87.0880446
  68.9031850  94.5861349  88.5615342  73.1695419  95.1074177  85.1448742
  72.4846458  95.4873078  84.5945776  73.2539269  95.7169504  85.8780690
  68.4707888  86.2095524  93.0666820  68.2268820  86.9637584  92.5301096
  68.7467819  86.5880871  93.9014067  70.4246351  92.7534136  91.7444086
  70.6363246  93.3965896  91.0678467  70.3776099  91.9196453  91.2766016
  68.0272580  85.3651957  88.6480658  67.1657059  85.6633210  88.9397395
  68.0535015  85.5822356  87.7161691  64.8434149  93.9094147  85.0554464
  65.3072495  94.1881850  84.2659086  64.5790948  93.0077592  84.8727554
  61.7358231  93.4565629  87.9934227  62.3059588  93.8852897  87.3551711
  62.3266342  93.1748213  88.6918412  63.7803036  90.0317300  81.8644029
  64.4827079  90.4838343  82.3317955  63.4483664  89.3901118  82.4923922
  62.2283397  88.6229056  96.2395238  61.5982058  89.3045337  96.4730635
  62.1219485  88.5112138  95.2948376  57.5228369  88.2900852  87.1661162
  56.7327423  88.5458381  86.6901273  58.0139617  89.1049190  87.2713203
  71.5392179  95.6306091  89.9166443  72.3609623  95.2286279  89.6349125
  71.5354582  95.5274326  90.8682559  59.4743115  88.6545431  84.1244639
  58.6774278  88.7664126  84.6428135  59.2468707  88.9932084  83.2585529
  65.3048782  95.1790135  92.0727154  65.3693215  95.6410542  92.9085325
  64.5959706  94.5487500  92.2009463  55.8066072  88.5431343  89.5976153
  56.0574111  89.4278353  89.8633729  56.3425621  88.3635944  88.8251245
  79.6298172  91.9744840  86.2651415  78.8761880  91.4052238  86.1095419
  79.7645713  91.9407504  87.2122049  65.0196800  96.8458242  81.9406134
  64.8842475  97.6909778  82.3690982  65.5606613  97.0477520  81.1772068
  61.5064140  82.9249822  98.6020489  61.1131085  82.3716021  99.2768133
  62.3230280  83.2360400  98.9927007  58.4726198  94.3633680  82.5134059
  58.9850718  95.1576930  82.6639624  59.1248910  93.6659971  82.4467660
  60.2821082  97.4799436  84.5956812  60.4587711  98.4017401  84.4077796
  61.0777916  97.1657856  85.0251192  64.4232101  84.3407701  96.1940746
  65.1641814  84.9414854  96.1145208  64.6550024  83.5985339  95.6358788
  59.5673439  89.5264068  94.4718975  59.4526954  88.6249326  94.7726074
  58.7117957  89.7727765  94.1203792  66.6465277  97.4681809  96.0706476
  66.2029131  96.6818187  95.7527380  67.3082490  97.6560959  95.4050367
  61.4052398  98.9977610  90.5967155  61.9559823  98.8694674  89.8244148
  60.5663874  99.2972499  90.2462047  68.7446515  97.7484609  94.0987877
  68.7264990  98.5693490  93.6068146  69.6666435  97.6238684  94.3238018
  65.2019569  95.2628738  94.9411386  65.7347906  94.5017026  94.7110694
  64.6733650  94.9702390  95.6835540  68.3689264  80.3688804  90.4705027
  68.0253533  81.2590446  90.3944138  68.7368226  80.1790462  89.6074612
  56.4375114  92.6922335  83.2893630  57.2750336  93.1019343  83.0727337
  56.6153382  91.7521777  83.2593823  68.3339546  90.3597415  78.9777463
  67.8186170  91.1302020  79.2165850  68.0616855  89.6862551  79.6010524
  65.9186657  85.2047116  84.0362701  65.0628254  84.8153966  83.8568340
  66.3313609  85.2839077  83.1762486  67.4485804  82.7393459  88.4354261
  66.9450600  82.7023594  87.6222066  67.7416411  83.6486202  88.4950917
  63.6928690  82.8232189  87.4420442  64.5581687  82.6274998  87.0826332
  63.7606199  82.5942541  88.3689799  73.3073821  93.1129770  80.9130636
  72.5303263  92.7740929  80.4685798  73.9865302  93.1182393  80.2385601
  68.1225850  88.2324507  80.8037244  67.8175985  88.5470656  81.6547387
  69.0756292  88.3105927  80.8464577  66.5672281  94.3914731  82.4530198
  66.0393643  93.6567490  82.1403435  66.0659784  95.1689407  82.2070166
  71.5465127  92.5863751  87.5697244  70.8888802  93.2763012  87.6577373
  72.3505527  92.9760183  87.9131230  61.2991009  85.0534397  84.8136809
  61.8734761  84.8309578  84.0810002  61.8861991  85.1223091  85.5665410
  70.3570586  90.9408124  85.6201186  70.8702468  91.5738116  86.1222895
  71.0071810  90.3409319  85.2544546  61.6260596  87.0838858  78.8332694
  60.7897908  87.4213544  79.1541969  61.4865366  86.9487838  77.8959831
  63.6013677  81.9275646  83.5411879  62.9478089  81.6124663  82.9168493
  63.5594151  81.3051386  84.2671702  64.7124882  92.2094941  75.4565171
  63.8051943  91.9784194  75.6556320  65.2095914  91.4132560  75.6439152
  67.6192960 100.9192448  78.3761857  66.9454659 101.2224145  78.9846815
  68.0058782 101.7221528  78.0267314  66.8351417  88.4157579  87.8659526
  65.9173978  88.6372526  87.7081214  67.2511561  88.4903890  87.0071234
  67.6186465  89.8148995  82.9962206  68.3658284  90.3270392  82.6869329
  67.8878054  89.4933048  83.8566600  65.8913115  92.3107536  79.9789161
  64.9824334  92.0266569  80.0761631  65.9208199  92.7306614  79.1192468
  71.1232382  95.9214125  83.7480328  70.6694710  95.0805035  83.8045519
  70.4926349  96.5575524  84.0855108  70.0665302  86.8506111  84.9780996
  69.3288059  86.3383497  85.3091238  70.3192076  86.4106493  84.1664273
  69.5665322  97.7590622  84.6830146  69.8588296  98.3195679  83.9642512
  70.0763942  98.0519183  85.4383306  70.1676929  79.6282363  85.5722765
  70.4735806  78.7679727  85.2848680  70.8929534  80.2199983  85.3721759
  56.4601285  90.0313050  83.9604363  56.2625685  89.4382411  83.2355430
  55.9047949  89.7265260  84.6780302  64.4398009  89.9236156  86.0798956
  64.4946619  88.9709993  86.0041433  63.6289211  90.0795595  86.5640255
  65.5889203  93.8516279  77.3177239  65.1508633  93.1352138  76.8582877
  66.3299644  94.0792394  76.7562331  62.3790369  88.5413216  83.8389335
  61.5658235  88.8407387  84.2454527  62.8749363  88.1468905  84.5563817
  64.5298947  98.5370973  85.7723600  64.4875126  98.7631819  84.8432132
  65.4461646  98.3034348  85.9209401  67.9764581  89.0055041  92.6704229
  68.3313968  89.2326514  93.5298695  68.6236712  89.3373417  92.0481484
  73.7062318  92.1273476  83.3753558  73.5680216  92.3175072  82.4474747
  73.3498536  92.8892859  83.8321609  61.8704444  86.1131572  89.4550570
  62.5103823  85.9720331  88.7573533  61.0381974  85.8266085  89.0789172
  73.7331697  94.1950003  88.3864829  74.1668204  94.1025293  89.2347883
  74.4463278  94.1707504  87.7484845  62.6464748  95.4134002  85.5685562
  63.4405346  94.9184322  85.3668137  61.9356440  94.8851865  85.2053268
  67.4659592  97.7952098  89.9197930  67.5196614  98.3643034  90.6875646
  66.5974374  97.9653983  89.5551967  58.9547511  89.5577084  81.6445315
  58.0245099  89.4961539  81.8615277  59.0504983  89.0353036  80.8481956
  58.8733060  86.0831897  84.2323557  59.1339877  86.9977230  84.1232717
  59.6950233  85.6156339  84.3820170  60.3457986  87.4969654  91.4022381
  61.0181039  87.2887016  90.7535030  59.5187772  87.2991740  90.9627614
  74.5947247  94.2373704  90.9197715  74.7883137  95.1419515  91.1656990
  74.4947865  93.7781123  91.7536300  66.2483558  84.1231595  93.4188042
  65.6011473  84.8221544  93.3252519  67.0184573  84.5567739  93.7864290
  69.6562355  94.3880447  96.4938595  69.5047862  94.1590999  95.5768679
  69.6467035  95.3451048  96.5069940  66.4247692  91.9612360  91.4784862
  67.3539752  92.1123519  91.3053829  66.0038722  92.0496380  90.6233508
  65.2236024  95.9863024  89.2483400  65.0847109  95.6181808  90.1209338
  64.4350620  96.5010663  89.0767357  65.8184176 101.0872120  80.5908936
  65.9935931 100.6160164  81.4054559  65.1316964 101.7137887  80.8190197
  66.7741239  95.3644627  86.6372237  66.4391071  95.3245397  87.5329887
  66.2745184  94.6989343  86.1642648  60.7485483  90.7712257  92.1624818
  60.6105281  90.0392496  92.7636357  61.6590406  90.6821157  91.8809006
  69.7100430  92.7100661  76.9109297  69.0929601  91.9847489  76.8142350
  69.2416919  93.4710021  76.5676371  63.3767783  90.4832216  91.6508498
  64.0867402  89.8425408  91.6095117  63.3337092  90.7345111  92.5734679
  71.3654562  97.4199569  94.5715077  71.3067108  96.7358789  93.9045660
  71.7674081  98.1618559  94.1195703  62.0896717  87.4697434  93.4704138
  61.5534074  87.0188172  94.1225734  61.5013426  87.6043343  92.7274602
  60.3845261 104.2361483  87.3648796  60.6241859 104.8680007  88.0427815
  59.5414457 103.8849523  87.6514155  61.4998976  86.9286085  76.0330601
  60.6228443  86.8074886  75.6692848  61.9756729  86.1372164  75.7809490
  71.3671969  95.3839153  92.8029057  70.4798748  95.0465075  92.9255456
  71.9370520  94.6522185  93.0397822  53.0201117  91.7163245  86.1272108
  53.7072156  91.4024975  85.5393124  52.8649245  92.6204610  85.8539360
  57.8235839  86.6053442  90.5557132  57.7394027  85.9979111  89.8207542
  57.0018545  87.0962460  90.5566628  64.8973123 100.0440606  89.7690300
  64.8243294 100.8495577  90.2809605  64.4550516 100.2432571  88.9438322
  64.6862902  99.2812376  83.2793122  63.9030424  99.8234056  83.3731346
  65.3855648  99.7986355  83.6787363  67.9959553  85.0907005  85.9227327
  68.4928252  84.3376967  85.6028397  67.2246534  85.1271322  85.3570536
  75.8489310  90.7947371  87.5645619  75.8379186  91.6772086  87.1939552
  74.9806689  90.4418922  87.3700156  67.3571806  99.9427440  91.9248459
  68.0699779 100.5774905  91.8524360  66.8661835 100.0391306  91.1088461
  69.0789333  93.8478692  83.4965751  68.1445612  93.9680155  83.3270455
  69.2566002  92.9451159  83.2325760  64.5794521  87.2324388  85.6499012
  64.2092309  86.6795429  86.3379917  65.0753614  86.6282522  85.0974012
  72.4661885  89.6896012  84.0315785  72.9322337  90.5224003  83.9576087
  72.9169385  89.2240993  84.7361043  62.4083720  97.6921883  92.7454030
  63.1093179  98.3258366  92.8983424  61.9378835  98.0336615  91.9849669
  70.5338116  96.0339833  81.0301937  70.8097960  95.9196428  81.9395811
  69.6642614  95.6357318  80.9914110  70.4378547  82.0576599  88.0706686
  69.5241627  82.2880825  88.2388893  70.8671649  82.1415043  88.9220718
  70.2085006  90.2466491  90.5706580  69.5556456  90.4942398  89.9159033
  70.5865386  89.4330629  90.2369057  67.1692180 100.2826184  84.6734750
  67.3514574  99.4647840  85.1362503  67.9925166 100.4993876  84.2359640
  67.5034345  99.2094369  81.9349799  68.0322112  98.6986823  81.3219961
  67.7662565  98.8936899  82.7995332  66.2572579  90.9886302  97.0572617
  65.5813216  90.8880431  97.7274992  67.0800213  90.8325515  97.5208614
  58.0051438  97.2258238  89.6785132  58.5904875  96.4801926  89.8113037
  57.8076276  97.5362195  90.5621796  60.8590093 100.2609486  84.6947575
  60.1900468 100.7455613  84.2111615  60.7202963 100.5078706  85.6090953
  52.5969093  89.7963838  88.3989576  52.6353192  89.2627429  89.1926694
  52.0909385  89.2699044  87.7800553  64.9995362 102.2953229  91.2930233
  65.5513670 102.4584851  92.0579318  65.3401555 102.8857667  90.6210258
  59.9759855  84.6428379  91.8952118  60.0401181  85.5043210  91.4829515
  59.9126975  84.0302381  91.1624476  59.4512127  86.7151511  95.5425152
  60.0784166  86.3328589  96.1562676  58.5940046  86.4965713  95.9080845
  69.8506236  97.1214487  97.1478888  70.3946140  97.7344445  96.6533842
  69.2693081  97.6794065  97.6645901  56.2277670  88.5227941  81.4743507
  56.5231111  87.6138619  81.4210561  55.3265706  88.5015680  81.1524509
  68.1363749 100.2435205  88.2793915  68.0114888  99.4424944  87.7704861
  68.7942840 100.7381398  87.7907885  59.7571917  86.5983937  87.4571055
  59.0358503  87.2119905  87.3178529  60.5465173  87.1341702  87.3787701
  70.1998657  98.0444225  89.9073465  69.2528993  97.9249576  89.8351792
  70.5481430  97.1566723  89.9899727  62.5598231  83.9338364  93.7311707
  63.0832633  84.1800660  94.4938017  62.3410564  84.7658398  93.3114845
  57.9565512  86.2042038  81.5982832  57.6278218  85.3239417  81.4157938
  58.3104882  86.1489707  82.4859221  67.2045091  97.8396941  86.1077818
  67.0570053  96.9113648  86.2885388  68.0298584  97.8617032  85.6234893
  61.0707335  86.4915008  81.9658310  61.4103407  87.0200929  81.2436918
  61.5179455  86.8295414  82.7416876  70.8079213  98.6625500  87.1942690
  71.7325760  98.4568361  87.0567141  70.6394516  98.4141901  88.1032032
  63.7650776  84.8752059  91.4161378  63.4247596  84.0759872  91.8182058
  63.0589782  85.1753770  90.8438211  64.4167248  81.9601371  89.8688701
  65.2393317  81.4861849  89.7467591  64.6605311  82.7391855  90.3687387
  63.0575482  84.9889630  80.1651602  63.7783845  85.3670882  79.6615319
  62.4340786  85.7078506  80.2686580  67.2006605  85.6934779  81.1009935
  67.4170219  86.5759416  80.7998763  66.7200672  85.3020992  80.3715577
  61.9405826  88.6520492  87.6780679  61.7950407  88.9660795  88.5704961
  61.4631030  89.2705392  87.1251578  63.8002209  85.6423040  87.7261569
  63.7863778  84.7464133  87.3893867  64.5174637  85.6493704  88.3599855
  65.6528340  86.0760380  89.7714696  65.3946118  86.9977451  89.7699027
  65.1213380  85.6790815  90.4615161  70.5974529  99.1811167  82.5504782
  70.7711406  98.6157590  81.7978634  71.0903420  99.9812062  82.3684272
  56.4151489  91.1925836  90.6168341  55.8704957  91.9685644  90.7488615
  57.2930838  91.5396641  90.4587462  63.2039105  84.5237420  82.9949139
  63.3255016  83.5954066  83.1940027  62.9141148  84.5376106  82.0827455
  66.0730296  82.2092331  86.1315859  66.0951992  82.2731664  85.1767838
  66.4898355  81.3696839  86.3256365  76.4513920  91.9447590  84.1695082
  76.8945066  91.1954915  83.7714205  75.5740430  91.9357726  83.7868814
  71.5849701  98.4977932  79.6501680  72.2800606  99.1184624  79.8688995
  71.9272851  97.6473283  79.9254058  57.2017510  90.3195732  93.5098497
  56.4599246  90.4678368  94.0963128  56.8810255  90.5803998  92.6465247
  73.4841124  95.9477637  81.1789011  74.0092448  96.2864910  80.4538331
  73.3963477  95.0124652  80.9952145  65.1461173  99.8611711  93.3078887
  65.4548299  99.6160857  94.1801587  65.9436655 100.0658349  92.8197758
  65.1681785 102.0149620  85.5384264  64.7286775 101.5225999  86.2317121
  65.9189902 101.4722588  85.2976339  57.6474124  98.2061161  85.5408892
  58.4732144  97.9064933  85.1607536  57.2968176  97.4368784  85.9898681
  62.6155657  97.5587629  87.6106566  61.9935667  96.8958334  87.3108794
  63.2860524  97.5848761  86.9280213  55.8482729  96.1247488  86.4997826
  55.0114637  95.6969662  86.3181827  55.8206375  96.3179931  87.4368617
  62.6880185  86.0369417  97.2039072  62.7368340  86.9131540  96.8216841
  63.2302699  85.4946810  96.6310715  73.1735030  96.5810541  96.4840209
  72.3830574  96.5634680  95.9444708  72.9368385  97.1198834  97.2389245
  73.2932905  93.4303007  93.7972937  73.3430910  93.2653015  94.7388460
  73.1846829  92.5630266  93.4070818  62.1769164  96.1091553  81.0865026
  62.3257285  96.7927017  80.4331699  62.9835608  96.0896643  81.6014482
  70.5836668  89.4133935  95.1132244  71.4846531  89.2740400  94.8216242
  70.6584642  89.5788390  96.0530421  64.9179473  86.7900790  93.9585430
  64.0482783  87.0834356  93.6868019  65.1538954  87.3741235  94.6792694
  74.7951102  95.8499949  94.0414959  74.5035911  96.2129929  94.8778420
  74.1823234  95.1366957  93.8628291  75.9946785  93.4152828  86.5617529
  76.8293676  93.8542632  86.7255089  76.1305913  92.9391482  85.7425775
  73.0438291  90.9732563  92.5095017  73.5192412  91.1660210  91.7013868
  72.1203856  91.0291749  92.2638401  59.9321797  92.1356730  82.0926095
  59.6867839  91.2319060  82.2906305  60.1017712  92.1373881  81.1505573
  67.6218507  83.0080407  91.4750851  68.1400451  83.7441434  91.1497339
  67.2673640  83.3144400  92.3097610  59.2017445  87.8685088  79.5912257
  58.5086690  87.9429443  78.9352293  58.9569197  87.1045432  80.1133774
  67.8731101  79.4280689  86.9951747  68.1532855  78.7603878  87.6212174
  68.6581708  79.6209785  86.4826411  65.6764570  98.6039683  78.5576774
  65.1038537  99.2229870  78.1047246  66.2497363  99.1539045  79.0916696
  71.7439960  87.8498323  90.7423322  72.6957382  87.9496421  90.7635546
  71.5743410  87.0576592  91.2521407  69.7654339  84.9353907  90.9282723
  69.1704271  85.2158919  90.2329212  69.4804036  85.4247807  91.6999464
  68.8961829  98.8876833  79.6885356  69.8292503  98.8222395  79.8918231
  68.8085042  99.7233100  79.2299889  71.5249846  98.2042704  76.6489303
  71.4463478  97.8702567  77.5425061  72.3459513  98.6964472  76.6480776
  74.2228037  91.0704443  89.8565622  74.1904357  90.1320444  90.0425306
  74.8328661  91.1488480  89.1231447  66.0611368  89.9400496  75.8992826
  67.0070473  89.8106704  75.9681244  65.6825613  89.2015158  76.3762254
  74.3722526  87.8615486  89.9023905  73.8561574  87.0773943  89.7153834
  75.2562474  87.5334203  90.0670425  72.0333253  81.6056502  85.8619718
  71.8358074  81.2971590  86.7463050  72.6432958  82.3318141  85.9917648
  80.0404587  92.1320450  88.9971659  80.7707976  91.8705738  89.5579362
  79.4311533  91.3949172  89.0373727  78.1219884  90.2728312  89.5946110
  77.3953048  90.1384277  88.9862602  77.7067171  90.5805141  90.4002828
  65.9450061  93.9918242  97.3593483  66.8653070  94.1696841  97.5533530
  65.9099644  93.0474287  97.2073182  64.2454285  87.8650472  75.8347711
  63.3385741  87.5683585  75.9110425  64.5230266  87.5680290  74.9681998
  55.1632226  89.1856836  86.2846758  54.8435010  88.3322144  85.9921132
  54.6165654  89.4005414  87.0404725  58.9412133  91.9019277  90.0016264
  59.1598143  92.8336385  90.0204298  59.3537907  91.5427251  90.7871068
  65.8616351  82.4087362  81.9891953  65.0517079  82.0634447  82.3647199
  66.5500768  82.0994906  82.5779564  67.7906899  81.4865409  83.6116249
  68.3437938  81.9060862  84.2706272  68.0276986  80.5601157  83.6539205
  63.8139999  87.4752483  99.3919013  63.7136725  88.4246839  99.3231104
  63.5961541  87.1470721  98.5195083  63.0153070  84.7237408  75.9759691
  63.8772234  85.0492306  76.2355508  63.2003414  83.9368903  75.4632756
  55.0320486  92.8059747  88.2539879  54.3383957  92.3913700  87.7409834
  55.7793477  92.8480284  87.6573298  71.1685706  83.5965934  83.1194914
  70.5884375  84.2550738  82.7372966  70.9021639  82.7743279  82.7082331
  69.6189273  82.9970992  85.3216234  70.1189051  83.1087526  84.5130553
  70.2624881  82.6932045  85.9617042  63.6771269  90.9049621  98.2084075
  63.1938350  91.7049981  98.4147964  63.7632208  90.9157566  97.2551519
  56.9457228  92.7378001  86.1305894  56.9227916  92.8365688  85.1787777
  57.2557865  93.5843152  86.4523060  59.6044606  94.7954156  90.2452509
  60.5587860  94.7638098  90.1782440  59.4057130  94.3344780  91.0602735
  60.1943988  93.3655272  92.8123306  61.0136877  93.8599351  92.8358144
  60.4680796  92.4487240  92.7840874  69.9510584  85.7566024  82.1751262
  69.0636439  86.0415675  81.9571457  70.3664574  85.5959788  81.3278539
  73.3025121  85.7812545  85.8905601  74.0785511  86.2708998  86.1630218
  72.5773255  86.2070600  86.3477471  75.7397679  86.4940165  86.9479542
  76.3342170  86.2535901  86.2372850  75.8124263  85.7747295  87.5753078
  57.9594835 100.3373776  87.2622707  57.8249303  99.5774176  86.6960705
  57.5426897 101.0614675  86.7951495  69.0953798  95.5210699  76.2699282
  69.7989648  95.7260702  76.8856937  68.3716447  96.0887461  76.5348365
  69.9251608  91.2720560  82.3901552  69.8686810  91.7289112  81.5509184
  70.4779951  90.5111245  82.2124395  73.7356414  87.0610292  83.2151671
  73.4793348  86.6606928  84.0459879  73.1109282  87.7754086  83.0901811
  78.0468752  89.8006365  85.7222963  77.4868310  89.8699555  86.4954525
  77.4412255  89.6247350  85.0022459  61.1163961 101.2343093  87.4741149
  60.9996345 102.1788525  87.3719839  60.2956407 100.9316654  87.8626948
  71.0040495  95.9593228  78.3197742  71.8386099  95.5274427  78.1375217
  70.8424838  95.7875242  79.2474636  70.6586387  92.4625342  79.6854081
  70.6035191  92.2969613  78.7442525  70.0332443  93.1701374  79.8416271
  55.4478902  87.6993406  93.5115503  56.0937766  87.1892360  94.0002729
  55.2396054  88.4362088  94.0858929  67.9732295  94.7674253  99.0107644
  68.8423454  94.9414906  98.6494279  67.4939046  95.5868670  98.8883373
  63.9682513  81.9633451  79.2639400  63.9561183  82.9075291  79.4207670
  64.8605935  81.7803596  78.9698861  62.1418475 101.8871354  90.6897078
  63.0445722 101.9194965  91.0063573  61.9155845 100.9571805  90.7043413
  63.8972077 100.6402341  87.3507156  62.9467708 100.6404203  87.2371528
  64.2004563  99.8935076  86.8343191  67.7834632  78.5576227  83.5185336
  67.0167028  78.0034714  83.6642019  68.1945337  78.6298096  84.3799488
  59.7876393  84.8461023  97.6090518  60.6507855  84.4897828  97.8193842
  59.2141804  84.5074918  98.2965922  79.6324770 106.4762879  88.4152919
  80.2703180 106.3569627  87.7116259  79.5145613 107.4243723  88.4740871
  76.4414477 106.4290307  88.3514443  76.1032988 106.3131372  87.4634978
  77.3104245 106.0281473  88.3315449  72.3001292 108.2825784  84.3411334
  71.7366158 108.1915721  83.5727622  72.1853687 107.4625688  84.8213827
  76.9234260 107.5825159  94.3100649  76.9122900 107.1877957  93.4381152
  77.0854899 106.8491232  94.9034420  69.8465724 109.7776976  87.1795555
  70.6387016 109.4367800  86.7641854  70.0862374 109.8871951  88.0997708
  77.8800851 111.9496752  79.6525799  77.2288831 112.5350832  79.2659813
  78.6745214 112.4802947  79.7120837  71.8056478 109.0385889  80.0512934
  72.5787354 108.4914876  79.9125809  72.1581877 109.9030138  80.2627395
  73.6441521 110.3662271  93.2579833  73.3531387 111.2707902  93.1426499
  74.2798505 110.4078799  93.9723902  74.5697728 107.7439120  89.8481192
  75.1661300 107.5195142  89.1338155  74.6272699 107.0023865  90.4506640
  74.1422756 105.1978555  77.6831383  74.3948277 104.6760076  76.9214846
  73.2047315 105.0344700  77.7858067  79.1866039 104.2014333  85.4906127
  79.9729128 103.7833756  85.1396544  79.4504743 105.1060425  85.6587775
  79.3576116 109.6387184  80.1894783  78.7221949 109.7121810  80.9015688
  79.0273523 110.2280782  79.5113863  84.5874466 104.1389566  86.3939105
  85.3199638 103.5688783  86.6276935  83.8313822 103.7511167  86.8345611
  73.8619045 107.1006661  79.8855758  73.7455303 106.4251564  80.5536843
  73.9721305 106.6139035  79.0687911  76.2050586 106.5616808  83.5902448
  75.8408793 106.0347429  84.3015369  77.0617702 106.1715277  83.4168933
  82.1099886  97.8511141  90.8533714  81.7783211  98.7206552  90.6294929
  81.5145500  97.5347425  91.5327744  75.8456073 101.5906708  78.5863796
  76.0130475 102.4586944  78.9534267  75.6553242 101.7533989  77.6625085
  78.6031406 110.0523687  90.2529626  78.3032129 110.9548725  90.1445434
  78.2582465 109.7855870  91.1050779  72.0543887 106.5037483  86.2866331
  71.1294384 106.3713697  86.4944023  72.3028301 107.2831703  86.7836273
  82.0028550 102.5706227  87.9327064  81.0945427 102.5021635  87.6385825
  81.9516145 103.0478172  88.7608889  75.8245294 104.0464365  79.5710463
  75.7044919 104.4921416  80.4095943  75.1297882 104.3949683  79.0124001
  69.4152698 106.1470757  87.1210120  69.5445080 106.4005236  88.0349532
  68.7350150 106.7398465  86.8014775  73.5852186 116.8168007  83.2200594
  73.5076215 117.7675832  83.2989075  72.9813829 116.4713879  83.8775520
  76.0769415 103.9895872  95.8761961  75.3002750 104.5489792  95.8664826
  76.7159979 104.4752655  96.3976831  83.8690196 100.7722665  89.7104938
  83.2264576 101.0655198  89.0644732  83.3645125 100.6575585  90.5158134
  81.5230360 104.5185838  80.3990797  82.4348216 104.7513225  80.2238495
  81.0140007 105.1022883  79.8365876  74.3315788 106.7981326  95.4379928
  75.0730472 107.3366370  95.1614752  73.6252773 107.4247614  95.5951480
  79.8071127 108.9410466  94.0352090  80.2154483 108.4992877  93.2906722
  79.0848389 108.3663094  94.2886282  76.1602197 103.8783073  91.4085647
  77.0063393 104.3022486  91.5520296  76.1000835 103.2216697  92.1024210
  80.1299942 109.5011657  87.7904378  79.5008805 109.6657371  87.0880446
  79.7425604 109.9153266  88.5615342  84.0089174 110.4366095  85.1448742
  83.3240212 110.8164996  84.5945776  84.0933023 111.0461421  85.8780690
  79.3101643 101.5387441  93.0666820  79.0662575 102.2929502  92.5301096
  79.5861573 101.9172789  93.9014067  81.2640106 108.0826054  91.7444086
  81.4757001 108.7257814  91.0678467  81.2169854 107.2488370  91.2766016
  78.8666335 100.6943874  88.6480658  78.0050814 100.9925128  88.9397395
  78.8928769 100.9114273  87.7161691  75.6827904 109.2386065  85.0554464
  76.1466249 109.5173768  84.2659086  75.4184702 108.3369509  84.8727554
  72.5751985 108.7857546  87.9934227  73.1453342 109.2144815  87.3551711
  73.1660097 108.5040131  88.6918412  74.6196790 105.3609217  81.8644029
  75.3220833 105.8130261  82.3317955  74.2877418 104.7193036  82.4923922
  73.0677152 103.9520974  96.2395238  72.4375812 104.6337255  96.4730635
  72.9613239 103.8404055  95.2948376  68.3622124 103.6192770  87.1661162
  67.5721178 103.8750298  86.6901273  68.8533371 104.4341108  87.2713203
  82.3785934 110.9598009  89.9166443  83.2003377 110.5578196  89.6349125
  82.3748336 110.8566243  90.8682559  70.3136869 103.9837349  84.1244639
  69.5168033 104.0956043  84.6428135  70.0862462 104.3224001  83.2585529
  76.1442537 110.5082052  92.0727154  76.2086969 110.9702460  92.9085325
  75.4353461 109.8779417  92.2009463  66.6459827 103.8723260  89.5976153
  66.8967865 104.7570270  89.8633729  67.1819375 103.6927862  88.8251245
  90.4691927 107.3036758  86.2651415  89.7155635 106.7344156  86.1095419
  90.6039468 107.2699422  87.2122049  75.8590555 112.1750160  81.9406134
  75.7236229 113.0201696  82.3690982  76.4000367 112.3769437  81.1772068
  72.3457894  98.2541740  98.6020489  71.9524840  97.7007938  99.2768133
  73.1624035  98.5652318  98.9927007  69.3119952 109.6925598  82.5134059
  69.8244473 110.4868848  82.6639624  69.9642665 108.9951888  82.4467660
  71.1214837 112.8091354  84.5956812  71.2981465 113.7309319  84.4077796
  71.9171670 112.4949773  85.0251192  75.2625855  99.6699619  96.1940746
  76.0035569 100.2706772  96.1145208  75.4943778  98.9277257  95.6358788
  70.4067193 104.8555986  94.4718975  70.2920708 103.9541243  94.7726074
  69.5511711 105.1019683  94.1203792  77.4859031 112.7973726  96.0706476
  77.0422885 112.0110105  95.7527380  78.1476245 112.9852877  95.4050367
  72.2446152 114.3269528  90.5967155  72.7953577 114.1986591  89.8244148
  71.4057628 114.6264417  90.2462047  79.5840269 113.0776526  94.0987877
  79.5658744 113.8985407  93.6068146  80.5060189 112.9530602  94.3238018
  76.0413323 110.5920656  94.9411386  76.5741660 109.8308944  94.7110694
  75.5127404 110.2994308  95.6835540  79.2083018  95.6980722  90.4705027
  78.8647288  96.5882363  90.3944138  79.5761981  95.5082379  89.6074612
  67.2768869 108.0214252  83.2893630  68.1144091 108.4311261  83.0727337
  67.4547136 107.0813694  83.2593823  79.1733301 105.6889333  78.9777463
  78.6579924 106.4593937  79.2165850  78.9010609 105.0154469  79.6010524
  76.7580412 100.5339034  84.0362701  75.9022008 100.1445884  83.8568340
  77.1707364 100.6130994  83.1762486  78.2879559  98.0685377  88.4354261
  77.7844354  98.0315512  87.6222066  78.5810165  98.9778120  88.4950917
  74.5322444  98.1524107  87.4420442  75.3975441  97.9566915  87.0826332
  74.5999953  97.9234458  88.3689799  84.1467575 108.4421687  80.9130636
  83.3697018 108.1032847  80.4685798  84.8259056 108.4474311  80.2385601
  78.9619604 103.5616425  80.8037244  78.6569740 103.8762574  81.6547387
  79.9150046 103.6397845  80.8464577  77.4066036 109.7206648  82.4530198
  76.8787397 108.9859408  82.1403435  76.9053539 110.4981325  82.2070166
  82.3858882 107.9155669  87.5697244  81.7282556 108.6054930  87.6577373
  83.1899281 108.3052101  87.9131230  72.1384764 100.3826315  84.8136809
  72.7128515 100.1601496  84.0810002  72.7255746 100.4515009  85.5665410
  81.1964341 106.2700041  85.6201186  81.7096222 106.9030033  86.1222895
  81.8465565 105.6701237  85.2544546  72.4654351 102.4130776  78.8332694
  71.6291663 102.7505462  79.1541969  72.3259120 102.2779755  77.8959831
  74.4407431  97.2567563  83.5411879  73.7871844  96.9416581  82.9168493
  74.3987905  96.6343304  84.2671702  75.5518636 107.5386859  75.4565171
  74.6445698 107.3076112  75.6556320  76.0489668 106.7424478  75.6439152
  78.4586715 116.2484366  78.3761857  77.7848414 116.5516062  78.9846815
  78.8452537 117.0513446  78.0267314  77.6745172 103.7449497  87.8659526
  76.7567733 103.9664444  87.7081214  78.0905315 103.8195807  87.0071234
  78.4580219 105.1440913  82.9962206  79.2052038 105.6562310  82.6869329
  78.7271809 104.8224965  83.8566600  76.7306870 107.6399453  79.9789161
  75.8218089 107.3558486  80.0761631  76.7601953 108.0598532  79.1192468
  81.9626137 111.2506043  83.7480328  81.5088464 110.4096953  83.8045519
  81.3320104 111.8867441  84.0855108  80.9059057 102.1798029  84.9780996
  80.1681813 101.6675415  85.3091238  81.1585830 101.7398411  84.1664273
  80.4059076 113.0882540  84.6830146  80.6982051 113.6487597  83.9642512
  80.9157697 113.3811101  85.4383306  81.0070684  94.9574281  85.5722765
  81.3129561  94.0971644  85.2848680  81.7323289  95.5491901  85.3721759
  67.2995040 105.3604967  83.9604363  67.1019440 104.7674328  83.2355430
  66.7441704 105.0557178  84.6780302  75.2791764 105.2528074  86.0798956
  75.3340373 104.3001910  86.0041433  74.4682966 105.4087513  86.5640255
  76.4282957 109.1808197  77.3177239  75.9902387 108.4644056  76.8582877
  77.1693398 109.4084312  76.7562331  73.2184123 103.8705134  83.8389335
  72.4051989 104.1699304  84.2454527  73.7143118 103.4760822  84.5563817
  75.3692701 113.8662891  85.7723600  75.3268880 114.0923737  84.8432132
  76.2855400 113.6326265  85.9209401  78.8158335 104.3346958  92.6704229
  79.1707723 104.5618431  93.5298695  79.4630466 104.6665335  92.0481484
  84.5456072 107.4565394  83.3753558  84.4073971 107.6466990  82.4474747
  84.1892291 108.2184777  83.8321609  72.7098198 101.4423489  89.4550570
  73.3497578 101.3012248  88.7573533  71.8775729 101.1558003  89.0789172
  84.5725452 109.5241921  88.3864829  85.0061958 109.4317210  89.2347883
  85.2857032 109.4999422  87.7484845  73.4858502 110.7425920  85.5685562
  74.2799101 110.2476240  85.3668137  72.7750195 110.2143783  85.2053268
  78.3053347 113.1244015  89.9197930  78.3590369 113.6934952  90.6875646
  77.4368128 113.2945900  89.5551967  69.7941266 104.8869001  81.6445315
  68.8638854 104.8253457  81.8615277  69.8898738 104.3644954  80.8481956
  69.7126815 101.4123814  84.2323557  69.9733632 102.3269147  84.1232717
  70.5343987 100.9448257  84.3820170  71.1851740 102.8261571  91.4022381
  71.8574793 102.6178934  90.7535030  70.3581527 102.6283657  90.9627614
  85.4341001 109.5665622  90.9197715  85.6276891 110.4711432  91.1656990
  85.3341619 109.1073041  91.7536300  77.0877312  99.4523512  93.4188042
  76.4405227 100.1513462  93.3252519  77.8578327  99.8859656  93.7864290
  80.4956110 109.7172364  96.4938595  80.3441616 109.4882916  95.5768679
  80.4860789 110.6742966  96.5069940  77.2641446 107.2904277  91.4784862
  78.1933506 107.4415437  91.3053829  76.8432476 107.3788298  90.6233508
  76.0629778 111.3154942  89.2483400  75.9240864 110.9473726  90.1209338
  75.2744374 111.8302581  89.0767357  76.6577930 116.4164038  80.5908936
  76.8329686 115.9452081  81.4054559  75.9710718 117.0429804  80.8190197
  77.6134993 110.6936544  86.6372237  77.2784826 110.6537314  87.5329887
  77.1138939 110.0281260  86.1642648  71.5879237 106.1004174  92.1624818
  71.4499035 105.3684413  92.7636357  72.4984161 106.0113074  91.8809006
  80.5494185 108.0392579  76.9109297  79.9323356 107.3139407  76.8142350
  80.0810673 108.8001939  76.5676371  74.2161538 105.8124134  91.6508498
  74.9261156 105.1717326  91.6095117  74.1730846 106.0637029  92.5734679
  82.2048317 112.7491487  94.5715077  82.1460863 112.0650707  93.9045660
  82.6067835 113.4910477  94.1195703  72.9290472 102.7989352  93.4704138
  72.3927829 102.3480090  94.1225734  72.3407180 102.9335260  92.7274602
  71.2239015 119.5653401  87.3648796  71.4635614 120.1971925  88.0427815
  70.3808212 119.2141441  87.6514155  72.3392731 102.2578003  76.0330601
  71.4622197 102.1366804  75.6692848  72.8150484 101.4664081  75.7809490
  82.2065724 110.7131071  92.8029057  81.3192503 110.3756993  92.9255456
  82.7764275 109.9814102  93.0397822  63.8594871 107.0455163  86.1272108
  64.5465911 106.7316893  85.5393124  63.7043000 107.9496527  85.8539360
  68.6629593 101.9345359  90.5557132  68.5787782 101.3271029  89.8207542
  67.8412300 102.4254378  90.5566628  75.7366877 115.3732523  89.7690300
  75.6637049 116.1787495  90.2809605  75.2944270 115.5724489  88.9438322
  75.5256657 114.6104293  83.2793122  74.7424179 115.1525974  83.3731346
  76.2249402 115.1278273  83.6787363  78.8353307 100.4198923  85.9227327
  79.3322007  99.6668885  85.6028397  78.0640289 100.4563239  85.3570536
  86.6883064 106.1239288  87.5645619  86.6772941 107.0064004  87.1939552
  85.8200444 105.7710839  87.3700156  78.1965561 115.2719357  91.9248459
  78.9093533 115.9066822  91.8524360  77.7055589 115.3683223  91.1088461
  79.9183088 109.1770610  83.4965751  78.9839366 109.2972072  83.3270455
  80.0959756 108.2743077  83.2325760  75.4188276 102.5616306  85.6499012
  75.0486063 102.0087346  86.3379917  75.9147368 101.9574439  85.0974012
  83.3055639 105.0187929  84.0315785  83.7716091 105.8515921  83.9576087
  83.7563140 104.5532911  84.7361043  73.2477474 113.0213801  92.7454030
  73.9486934 113.6550284  92.8983424  72.7772589 113.3628532  91.9849669
  81.3731870 111.3631751  81.0301937  81.6491714 111.2488345  81.9395811
  80.5036369 110.9649235  80.9914110  81.2772302  97.3868516  88.0706686
  80.3635382  97.6172743  88.2388893  81.7065403  97.4706960  88.9220718
  81.0478760 105.5758408  90.5706580  80.3950211 105.8234316  89.9159033
  81.4259140 104.7622546  90.2369057  78.0085934 115.6118101  84.6734750
  78.1908329 114.7939757  85.1362503  78.8318920 115.8285794  84.2359640
  78.3428100 114.5386287  81.9349799  78.8715866 114.0278741  81.3219961
  78.6056319 114.2228817  82.7995332  77.0966333 106.3178219  97.0572617
  76.4206970 106.2172349  97.7274992  77.9193967 106.1617433  97.5208614
  68.8445192 112.5550156  89.6785132  69.4298629 111.8093844  89.8113037
  68.6470031 112.8654113  90.5621796  71.6983848 115.5901403  84.6947575
  71.0294223 116.0747531  84.2111615  71.5596717 115.8370624  85.6090953
  63.4362847 105.1255756  88.3989576  63.4746947 104.5919347  89.1926694
  62.9303140 104.5990962  87.7800553  75.8389116 117.6245147  91.2930233
  76.3907424 117.7876768  92.0579318  76.1795310 118.2149585  90.6210258
  70.8153609  99.9720297  91.8952118  70.8794936 100.8335127  91.4829515
  70.7520730  99.3594298  91.1624476  70.2905882 102.0443429  95.5425152
  70.9177921 101.6620506  96.1562676  69.4333801 101.8257631  95.9080845
  67.0671425 103.8519858  81.4743507  67.3624866 102.9430537  81.4210561
  66.1659460 103.8307598  81.1524509  78.9757503 115.5727122  88.2793915
  78.8508643 114.7716862  87.7704861  79.6336595 116.0673316  87.7907885
  70.5965672 101.9275855  87.4571055  69.8752257 102.5411823  87.3178529
  71.3858927 102.4633620  87.3787701  81.0392412 113.3736142  89.9073465
  80.0922747 113.2541494  89.8351792  81.3875185 112.4858640  89.9899727
  73.3991985  99.2630281  93.7311707  73.9226387  99.5092578  94.4938017
  73.1804318 100.0950316  93.3114845  68.7959266 101.5333956  81.5982832
  68.4671972 100.6531335  81.4157938  69.1498637 101.4781625  82.4859221
  78.0438845 113.1688859  86.1077818  77.8963808 112.2405566  86.2885388
  78.8692339 113.1908949  85.6234893  71.9101089 101.8206926  81.9658310
  72.2497162 102.3492847  81.2436918  72.3573210 102.1587332  82.7416876
  81.6472967 113.9917417  87.1942690  82.5719514 113.7860279  87.0567141
  81.4788270 113.7433819  88.1032032  74.6044530 100.2043976  91.4161378
  74.2641351  99.4051789  91.8182058  73.8983537 100.5045687  90.8438211
  75.2561002  97.2893289  89.8688701  76.0787071  96.8153767  89.7467591
  75.4999066  98.0683773  90.3687387  73.8969237 100.3181547  80.1651602
  74.6177599 100.6962800  79.6615319  73.2734541 101.0370424  80.2686580
  78.0400359 101.0226696  81.1009935  78.2563974 101.9051334  80.7998763
  77.5594427 100.6312910  80.3715577  72.7799581 103.9812409  87.6780679
  72.6344162 104.2952713  88.5704961  72.3024784 104.5997310  87.1251578
  74.6395964 100.9714957  87.7261569  74.6257532 100.0756051  87.3893867
  75.3568392 100.9785621  88.3599855  76.4922094 101.4052298  89.7714696
  76.2339872 102.3269368  89.7699027  75.9607135 101.0082732  90.4615161
  81.4368283 114.5103085  82.5504782  81.6105161 113.9449507  81.7978634
  81.9297174 115.3103980  82.3684272  67.2545243 106.5217754  90.6168341
  66.7098711 107.2977562  90.7488615  68.1324593 106.8688558  90.4587462
  74.0432860  99.8529338  82.9949139  74.1648771  98.9245984  83.1940027
  73.7534902  99.8668024  82.0827455  76.9124050  97.5384248  86.1315859
  76.9345747  97.6023581  85.1767838  77.3292109  96.6988757  86.3256365
  87.2907674 107.2739508  84.1695082  87.7338820 106.5246833  83.7714205
  86.4134185 107.2649644  83.7868814  82.4243456 113.8269849  79.6501680
  83.1194360 114.4476542  79.8688995  82.7666606 112.9765200  79.9254058
  68.0411265 105.6487650  93.5098497  67.2993001 105.7970285  94.0963128
  67.7204009 105.9095916  92.6465247  84.3234879 111.2769555  81.1789011
  84.8486203 111.6156827  80.4538331  84.2357231 110.3416570  80.9952145
  75.9854928 115.1903628  93.3078887  76.2942054 114.9452775  94.1801587
  76.7830410 115.3950267  92.8197758  76.0075540 117.3441538  85.5384264
  75.5680530 116.8517917  86.2317121  76.7583657 116.8014506  85.2976339
  68.4867879 113.5353079  85.5408892  69.3125898 113.2356851  85.1607536
  68.1361931 112.7660701  85.9898681  73.4549412 112.8879547  87.6106566
  72.8329421 112.2250252  87.3108794  74.1254279 112.9140679  86.9280213
  66.6876484 111.4539405  86.4997826  65.8508392 111.0261580  86.3181827
  66.6600129 111.6471849  87.4368617  73.5273939 101.3661335  97.2039072
  73.5762095 102.2423458  96.8216841  74.0696453 100.8238728  96.6310715
  84.1326660 108.7594925  93.7972937  84.1824665 108.5944932  94.7388460
  84.0240583 107.8922184  93.4070818  73.0162919 111.4383470  81.0865026
  73.1651039 112.1218935  80.4331699  73.8229362 111.4188560  81.6014482
  81.4230422 104.7425853  95.1132244  82.3240285 104.6032318  94.8216242
  81.4978397 104.9080308  96.0530421  75.7573228 102.1192708  93.9585430
  74.8876537 102.4126274  93.6868019  75.9932708 102.7033153  94.6792694
  86.8340539 108.7444746  86.5617529  87.6687430 109.1834550  86.7255089
  86.9699668 108.2683399  85.7425775  83.8832045 106.3024481  92.5095017
  84.3586167 106.4952127  91.7013868  82.9597610 106.3583667  92.2638401
  70.7715552 107.4648648  82.0926095  70.5261594 106.5610978  82.2906305
  70.9411466 107.4665799  81.1505573  78.4612261  98.3372324  91.4750851
  78.9794205  99.0733351  91.1497339  78.1067394  98.6436318  92.3097610
  70.0411199 103.1977006  79.5912257  69.3480444 103.2721361  78.9352293
  69.7962951 102.4337349  80.1133774  78.7124856  94.7572607  86.9951747
  78.9926609  94.0895796  87.6212174  79.4975463  94.9501703  86.4826411
  76.5158324 113.9331601  78.5576774  75.9432291 114.5521788  78.1047246
  77.0891118 114.4830963  79.0916696  82.5833714 103.1790241  90.7423322
  83.5351137 103.2788339  90.7635546  82.4137164 102.3868510  91.2521407
  80.6048093 100.2645824  90.9282723  80.0098026 100.5450837  90.2329212
  80.3197790 100.7539725  91.6999464  79.7355584 114.2168751  79.6885356
  80.6686257 114.1514313  79.8918231  79.6478797 115.0525018  79.2299889
  82.3643601 113.5334621  76.6489303  82.2857232 113.1994485  77.5425061
  83.1853267 114.0256389  76.6480776  85.0621792 106.3996361  89.8565622
  85.0298112 105.4612361  90.0425306  85.6722415 106.4780397  89.1231447
  76.9005123 105.2692414  75.8992826  77.8464227 105.1398622  75.9681244
  76.5219368 104.5307076  76.3762254  85.2116280 103.1907404  89.9023905
  84.6955329 102.4065861  89.7153834  86.0956229 102.8626121  90.0670425
  82.8727007  96.9348420  85.8619718  82.6751828  96.6263508  86.7463050
  83.4826713  97.6610059  85.9917648  90.8798342 107.4612368  88.9971659
  91.6101730 107.1997656  89.5579362  90.2705287 106.7241089  89.0373727
  88.9613639 105.6020230  89.5946110  88.2346802 105.4676195  88.9862602
  88.5460926 105.9097059  90.4002828  76.7843815 109.3210160  97.3593483
  77.7046825 109.4988759  97.5533530  76.7493398 108.3766205  97.2073182
  75.0848040 103.1942390  75.8347711  74.1779495 102.8975503  75.9110425
  75.3624021 102.8972208  74.9681998  66.0025980 104.5148753  86.2846758
  65.6828765 103.6614062  85.9921132  65.4559408 104.7297332  87.0404725
  69.7805888 107.2311194  90.0016264  69.9991898 108.1628302  90.0204298
  70.1931662 106.8719169  90.7871068  76.7010106  97.7379280  81.9891953
  75.8910834  97.3926365  82.3647199  77.3894522  97.4286823  82.5779564
  78.6300654  96.8157327  83.6116249  79.1831692  97.2352780  84.2706272
  78.8670740  95.8893075  83.6539205  74.6533753 102.8044400  99.3919013
  74.5530480 103.7538757  99.3231104  74.4355295 102.4762639  98.5195083
  73.8546824 100.0529325  75.9759691  74.7165988 100.3784224  76.2355508
  74.0397169  99.2660821  75.4632756  65.8714240 108.1351665  88.2539879
  65.1777712 107.7205618  87.7409834  66.6187231 108.1772201  87.6573298
  82.0079461  98.9257852  83.1194914  81.4278130  99.5842656  82.7372966
  81.7415394  98.1035196  82.7082331  80.4583027  98.3262909  85.3216234
  80.9582806  98.4379444  84.5130553  81.1018635  98.0223962  85.9617042
  74.5165023 106.2341539  98.2084075  74.0332105 107.0341899  98.4147964
  74.6025962 106.2449484  97.2551519  67.7850983 108.0669919  86.1305894
  67.7621671 108.1657606  85.1787777  68.0951619 108.9135069  86.4523060
  70.4438361 110.1246074  90.2452509  71.3981614 110.0930016  90.1782440
  70.2450884 109.6636697  91.0602735  71.0337743 108.6947190  92.8123306
  71.8530632 109.1891268  92.8358144  71.3074550 107.7779158  92.7840874
  80.7904339 101.0857942  82.1751262  79.9030194 101.3707593  81.9571457
  81.2058328 100.9251705  81.3278539  84.1418875 101.1104463  85.8905601
  84.9179265 101.6000916  86.1630218  83.4167009 101.5362517  86.3477471
  86.5791434 101.8232082  86.9479542  87.1735924 101.5827818  86.2372850
  86.6518017 101.1039213  87.5753078  68.7988589 115.6665693  87.2622707
  68.6643057 114.9066094  86.6960705  68.3820652 116.3906593  86.7951495
  79.9347552 110.8502617  76.2699282  80.6383403 111.0552619  76.8856937
  79.2110201 111.4179379  76.5348365  80.7645363 106.6012478  82.3901552
  80.7080564 107.0581029  81.5509184  81.3173705 105.8403163  82.2124395
  84.5750169 102.3902210  83.2151671  84.3187103 101.9898846  84.0459879
  83.9503037 103.1046004  83.0901811  88.8862506 105.1298283  85.7222963
  88.3262064 105.1991472  86.4954525  88.2806010 104.9539268  85.0022459
  71.9557715 116.5635010  87.4741149  71.8390099 117.5080443  87.3719839
  71.1350162 116.2608572  87.8626948  81.8434250 111.2885146  78.3197742
  82.6779854 110.8566344  78.1375217  81.6818593 111.1167160  79.2474636
  81.4980142 107.7917259  79.6854081  81.4428946 107.6261531  78.7442525
  80.8726197 108.4993292  79.8416271  66.2872657 103.0285324  93.5115503
  66.9331521 102.5184278  94.0002729  66.0789808 103.7654005  94.0858929
  74.8076267  97.2925368  79.2639400  74.7954937  98.2367208  79.4207670
  75.6999689  97.1095514  78.9698861  72.9812229 117.2163272  90.6897078
  73.8839476 117.2486882  91.0063573  72.7549599 116.2863723  90.7043413
  74.7365831 115.9694259  87.3507156  73.7861462 115.9696120  87.2371528
  75.0398318 115.2226993  86.8343191  78.6228387  93.8868145  83.5185336
  77.8560783  93.3326632  83.6642019  79.0339092  93.9590014  84.3799488
  70.6270148 100.1752941  97.6090518  71.4901610  99.8189746  97.8193842
  70.0535559  99.8366836  98.2965922  83.1395047 123.6117702  84.3411334
  82.5759912 123.5207639  83.5727622  83.0247442 122.7917606  84.8213827
  80.6859479 125.1068893  87.1795555  81.4780771 124.7659718  86.7641854
  80.9256129 125.2163868  88.0997708  82.6450233 124.3677806  80.0512934
  83.4181109 123.8206794  79.9125809  82.9975632 125.2322056  80.2627395
  84.9816511 120.5270473  77.6831383  85.2342031 120.0051994  76.9214846
  84.0441070 120.3636618  77.7858067  90.0259793 119.5306251  85.4906127
  90.8122883 119.1125674  85.1396544  90.2898498 120.4352343  85.6587775
  84.7012799 122.4298579  79.8855758  84.5849057 121.7543482  80.5536843
  84.8115059 121.9430952  79.0687911  87.0444340 121.8908726  83.5902448
  86.6802547 121.3639347  84.3015369  87.9011456 121.5007195  83.4168933
  86.6849827 116.9198625  78.5863796  86.8524230 117.7878862  78.9534267
  86.4946996 117.0825907  77.6625085  82.8937642 121.8329401  86.2866331
  81.9688138 121.7005615  86.4944023  83.1422055 122.6123620  86.7836273
  86.6639048 119.3756283  79.5710463  86.5438673 119.8213334  80.4095943
  85.9691636 119.7241600  79.0124001  80.2546453 121.4762675  87.1210120
  80.3838834 121.7297154  88.0349532  79.5743904 122.0690383  86.8014775
  92.3624114 119.8477756  80.3990797  93.2741970 120.0805143  80.2238495
  91.8533761 120.4314800  79.8365876  89.7060089 116.0235792  88.6480658
  88.8444568 116.3217046  88.9397395  89.7322524 116.2406191  87.7161691
  86.5221658 124.5677983  85.0554464  86.9860004 124.8465686  84.2659086
  86.2578457 123.6661427  84.8727554  85.4590544 120.6901135  81.8644029
  86.1614588 121.1422179  82.3317955  85.1271173 120.0484954  82.4923922
  79.2015878 118.9484688  87.1661162  78.4114932 119.2042216  86.6901273
  79.6927126 119.7633025  87.2713203  81.1530624 119.3129267  84.1244639
  80.3561787 119.4247961  84.6428135  80.9256216 119.6515919  83.2585529
  77.4853581 119.2015178  89.5976153  77.7361620 120.0862188  89.8633729
  78.0213130 119.0219780  88.8251245  80.1513706 125.0217516  82.5134059
  80.6638227 125.8160766  82.6639624  80.8036419 124.3243806  82.4467660
  81.9608591 128.1383272  84.5956812  82.1375220 129.0601237  84.4077796
  82.7565425 127.8241691  85.0251192  90.0476773 111.0272639  90.4705027
  89.7041042 111.9174281  90.3944138  90.4155735 110.8374297  89.6074612
  78.1162623 123.3506170  83.2893630  78.9537845 123.7603178  83.0727337
  78.2940891 122.4105612  83.2593823  90.0127055 121.0181251  78.9777463
  89.4973679 121.7885855  79.2165850  89.7404364 120.3446387  79.6010524
  87.5974166 115.8630951  84.0362701  86.7415763 115.4737802  83.8568340
  88.0101118 115.9422912  83.1762486  89.1273313 113.3977295  88.4354261
  88.6238109 113.3607430  87.6222066  89.4203920 114.3070037  88.4950917
  85.3716199 113.4816024  87.4420442  86.2369196 113.2858833  87.0826332
  85.4393708 113.2526376  88.3689799  89.8013359 118.8908343  80.8037244
  89.4963494 119.2054492  81.6547387  90.7543801 118.9689762  80.8464577
  88.2459790 125.0498566  82.4530198  87.7181152 124.3151325  82.1403435
  87.7447293 125.8273242  82.2070166  82.9778518 115.7118232  84.8136809
  83.5522270 115.4893414  84.0810002  83.5649500 115.7806927  85.5665410
  83.3048105 117.7422693  78.8332694  82.4685417 118.0797380  79.1541969
  83.1652875 117.6071673  77.8959831  85.2801186 112.5859481  83.5411879
  84.6265598 112.2708498  82.9168493  85.2381660 111.9635222  84.2671702
  86.3912391 122.8678776  75.4565171  85.4839452 122.6368030  75.6556320
  86.8883423 122.0716395  75.6439152  88.5138926 119.0741415  87.8659526
  87.5961487 119.2956362  87.7081214  88.9299070 119.1487725  87.0071234
  89.2973974 120.4732830  82.9962206  90.0445793 120.9854228  82.6869329
  89.5665563 120.1516883  83.8566600  87.5700624 122.9691371  79.9789161
  86.6611843 122.6850404  80.0761631  87.5995708 123.3890450  79.1192468
  91.7452811 117.5089947  84.9780996  91.0075568 116.9967333  85.3091238
  91.9979585 117.0690328  84.1664273  91.8464438 110.2866199  85.5722765
  92.1523315 109.4263562  85.2848680  92.5717043 110.8783819  85.3721759
  78.1388794 120.6896885  83.9604363  77.9413194 120.0966246  83.2355430
  77.5835458 120.3849095  84.6780302  86.1185518 120.5819992  86.0798956
  86.1734128 119.6293828  86.0041433  85.3076720 120.7379431  86.5640255
  87.2676712 124.5100115  77.3177239  86.8296142 123.7935974  76.8582877
  88.0087153 124.7376230  76.7562331  84.0577878 119.1997051  83.8389335
  83.2445744 119.4991222  84.2454527  84.5536872 118.8052740  84.5563817
  83.5491953 116.7715407  89.4550570  84.1891332 116.6304166  88.7573533
  82.7169483 116.4849920  89.0789172  84.3252257 126.0717837  85.5685562
  85.1192855 125.5768157  85.3668137  83.6143949 125.5435700  85.2053268
  80.6335020 120.2160919  81.6445315  79.7032608 120.1545375  81.8615277
  80.7292492 119.6936872  80.8481956  80.5520569 116.7415732  84.2323557
  80.8127386 117.6561065  84.1232717  81.3737741 116.2740174  84.3820170
  82.0245494 118.1553489  91.4022381  82.6968548 117.9470851  90.7535030
  81.1975281 117.9575575  90.9627614  83.1786485 117.5869921  76.0330601
  82.3015952 117.4658721  75.6692848  83.6544238 116.7955999  75.7809490
  74.6988625 122.3747080  86.1272108  75.3859665 122.0608810  85.5393124
  74.5436754 123.2788445  85.8539360  79.5023348 117.2637277  90.5557132
  79.4181536 116.6562947  89.8207542  78.6806054 117.7546295  90.5566628
  89.6747061 115.7490840  85.9227327  90.1715761 114.9960803  85.6028397
  88.9034043 115.7855157  85.3570536  86.2582030 117.8908223  85.6499012
  85.8879818 117.3379264  86.3379917  86.7541123 117.2866357  85.0974012
  94.1449394 120.3479847  84.0315785  94.6109846 121.1807839  83.9576087
  94.5956894 119.8824829  84.7361043  92.1166056 112.7160434  88.0706686
  91.2029136 112.9464661  88.2388893  92.5459158 112.7998878  88.9220718
  74.2756602 120.4547674  88.3989576  74.3140701 119.9211264  89.1926694
  73.7696894 119.9282879  87.7800553  81.6547364 115.3012214  91.8952118
  81.7188690 116.1627045  91.4829515  81.5914484 114.6886216  91.1624476
  77.9065179 119.1811776  81.4743507  78.2018620 118.2722454  81.4210561
  77.0053215 119.1599515  81.1524509  81.4359426 117.2567772  87.4571055
  80.7146012 117.8703740  87.3178529  82.2252682 117.7925537  87.3787701
  79.6353021 116.8625874  81.5982832  79.3065727 115.9823252  81.4157938
  79.9892391 116.8073542  82.4859221  82.7494844 117.1498843  81.9658310
  83.0890916 117.6784765  81.2436918  83.1966964 117.4879249  82.7416876
  85.4438285 115.5335894  91.4161378  85.1035105 114.7343707  91.8182058
  84.7377291 115.8337605  90.8438211  86.0954757 112.6185207  89.8688701
  86.9180826 112.1445685  89.7467591  86.3392820 113.3975690  90.3687387
  84.7362991 115.6473465  80.1651602  85.4571354 116.0254718  79.6615319
  84.1128295 116.3662342  80.2686580  88.8794114 116.3518614  81.1009935
  89.0957728 117.2343252  80.7998763  88.3988181 115.9604827  80.3715577
  83.6193335 119.3104327  87.6780679  83.4737916 119.6244630  88.5704961
  83.1418539 119.9289227  87.1251578  85.4789718 116.3006875  87.7261569
  85.4651287 115.4047968  87.3893867  86.1962146 116.3077539  88.3599855
  87.3315849 116.7344215  89.7714696  87.0733627 117.6561286  89.7699027
  86.8000889 116.3374650  90.4615161  78.0938997 121.8509672  90.6168341
  77.5492466 122.6269480  90.7488615  78.9718347 122.1980476  90.4587462
  84.8826614 115.1821255  82.9949139  85.0042525 114.2537902  83.1940027
  84.5928657 115.1959941  82.0827455  87.7517805 112.8676166  86.1315859
  87.7739501 112.9315499  85.1767838  88.1685864 112.0280674  86.3256365
  79.3261633 128.8644997  85.5408892  80.1519653 128.5648768  85.1607536
  78.9755685 128.0952619  85.9898681  77.5270238 126.7831323  86.4997826
  76.6902146 126.3553497  86.3181827  77.4993884 126.9763766  87.4368617
  83.8556673 126.7675388  81.0865026  84.0044793 127.4510852  80.4331699
  84.6623117 126.7480478  81.6014482  81.6109306 122.7940566  82.0926095
  81.3655348 121.8902896  82.2906305  81.7805221 122.7957716  81.1505573
  80.8804954 118.5268923  79.5912257  80.1874199 118.6013278  78.9352293
  80.6356706 117.7629267  80.1133774  89.5518610 110.0864525  86.9951747
  89.8320364 109.4187714  87.6212174  90.3369217 110.2793620  86.4826411
  87.7398877 120.5984331  75.8992826  88.6857982 120.4690539  75.9681244
  87.3613122 119.8598993  76.3762254  93.7120762 112.2640337  85.8619718
  93.5145583 111.9555426  86.7463050  94.3220467 112.9901976  85.9917648
  85.9241794 118.5234308  75.8347711  85.0173250 118.2267420  75.9110425
  86.2017775 118.2264126  74.9681998  76.8419735 119.8440671  86.2846758
  76.5222519 118.9905979  85.9921132  76.2953163 120.0589249  87.0404725
  87.5403860 113.0671197  81.9891953  86.7304588 112.7218282  82.3647199
  88.2288277 112.7578741  82.5779564  89.4694408 112.1449244  83.6116249
  90.0225447 112.5644698  84.2706272  89.7064495 111.2184992  83.6539205
  84.6940579 115.3821243  75.9759691  85.5559743 115.7076141  76.2355508
  84.8790923 114.5952739  75.4632756  76.7107995 123.4643583  88.2539879
  76.0171466 123.0497535  87.7409834  77.4580986 123.5064119  87.6573298
  92.8473215 114.2549769  83.1194914  92.2671884 114.9134573  82.7372966
  92.5809148 113.4327114  82.7082331  91.2976782 113.6554827  85.3216234
  91.7976560 113.7671362  84.5130553  91.9412390 113.3515880  85.9617042
  78.6244737 123.3961836  86.1305894  78.6015425 123.4949524  85.1787777
  78.9345374 124.2426987  86.4523060  91.6298093 116.4149860  82.1751262
  90.7423948 116.6999510  81.9571457  92.0452082 116.2543623  81.3278539
  94.9812630 116.4396381  85.8905601  95.7573020 116.9292833  86.1630218
  94.2560764 116.8654435  86.3477471  91.6039117 121.9304396  82.3901552
  91.5474319 122.3872947  81.5509184  92.1567460 121.1695080  82.2124395
  95.4143923 117.7194128  83.2151671  95.1580857 117.3190763  84.0459879
  94.7896791 118.4337921  83.0901811  85.6470022 112.6217286  79.2639400
  85.6348692 113.5659126  79.4207670  86.5393444 112.4387431  78.9698861
  89.4622141 109.2160063  83.5185336  88.6954537 108.6618549  83.6642019
  89.8732846 109.2881931  84.3799488  25.4355999   6.8365414  75.1398225
  26.0734409   6.7172161  74.4361565  25.3176842   7.7846258  75.1986177
  22.2445705   6.7892842  75.0759750  21.9064217   6.6733906  74.1880285
  23.1135474   6.3884007  75.0560756  18.1032521   8.6428318  71.0656641
  17.5397386   8.5518255  70.2972929  17.9884916   7.8228223  71.5459133
  22.7265488   7.9427693  81.0345955  22.7154129   7.5480492  80.1626459
  22.8886128   7.2093766  81.6279727  15.6496953  10.1379510  73.9040861
  16.4418245   9.7970334  73.4887161  15.8893603  10.2474485  74.8243015
  23.6832080  12.3099286  66.3771106  23.0320060  12.8953366  65.9905120
  24.4776443  12.8405481  66.4366143  17.6087707   9.3988423  66.7758240
  18.3818583   8.8517410  66.6371116  17.9613106  10.2632672  66.9872702
  19.4472750  10.7264805  79.9825139  19.1562616  11.6310436  79.8671806
  20.0829734  10.7681333  80.6969209  20.3728956   8.1041654  76.5726499
  20.9692529   7.8797676  75.8583462  20.4303928   7.3626399  77.1751947
  19.9453985   5.5581089  64.4076690  20.1979506   5.0362610  63.6460153
  19.0078544   5.3947235  64.5103374  24.9897268   4.5616867  72.2151433
  25.7760357   4.1436291  71.8641850  25.2535972   5.4662960  72.3833082
  25.1607345   9.9989718  66.9140090  24.5253178  10.0724344  67.6260995
  24.8304751  10.5883317  66.2359169  30.3905695   4.4992101  73.1184412
  31.1230867   3.9291317  73.3522241  29.6345051   4.1113701  73.5590917
  19.6650274   7.4609195  66.6101065  19.5486532   6.7854098  67.2782149
  19.7752534   6.9741569  65.7933218  22.0081815   6.9219342  70.3147754
  21.6440022   6.3949963  71.0260676  22.8648930   6.5317811  70.1414240
  24.4062635  10.4126221  76.9774933  24.1063358  11.3151260  76.8690740
  24.0613694  10.1458404  77.8296086  17.8575116   6.8640018  73.0111638
  16.9325613   6.7316232  73.2189329  18.1059529   7.6434237  73.5081580
  27.8059778   2.9308761  74.6572370  26.8976656   2.8624169  74.3631131
  27.7547374   3.4080706  75.4854196  21.6276522   4.4066899  66.2955770
  21.5076148   4.8523950  67.1341250  20.9329111   4.7552217  65.7369308
  19.3883415  17.1770541  69.9445901  19.3107444  18.1278366  70.0234381
  18.7845058  16.8316414  70.6020827  21.8800644   4.3498407  82.6007268
  21.1033978   4.9092327  82.5910132  22.5191207   4.8355190  83.1222138
  29.6721425   1.1325199  76.4350244  29.0295805   1.4257732  75.7890039
  29.1676353   1.0178120  77.2403441  27.3261589   4.8788373  67.1236104
  28.2379445   5.1115759  66.9483801  26.8171236   5.4625417  66.5611182
  20.1347017   7.1583860  82.1625235  20.8761701   7.6968904  81.8860058
  19.4284002   7.7850149  82.3196787  25.6102356   9.3013000  80.7597396
  26.0185712   8.8595411  80.0152029  24.8879618   8.7265628  81.0131589
  21.9633426   4.2385607  78.1330953  22.8094621   4.6625021  78.2765602
  21.9032064   3.5819231  78.8269516  25.9331171   9.8614191  74.5149685
  25.3040033  10.0259905  73.8125753  25.5456833  10.2755801  75.2860649
  29.8120403  10.7968629  71.8694049  29.1271441  11.1767530  71.3191082
  29.8964252  11.4063955  72.6025997  25.1132872   1.8989975  79.7912127
  24.8693803   2.6532036  79.2546402  25.3892802   2.2775323  80.6259374
  27.0671334   8.4428588  78.4689392  27.2788230   9.0860348  77.7923773
  27.0201083   7.6090904  78.0011322  21.4859133   9.5988599  71.7799770
  21.9497478   9.8776302  70.9904393  21.2215931   8.6972044  71.5972861
  18.3783214   9.1460081  74.7179533  18.9484571   9.5747349  74.0797018
  18.9691326   8.8642665  75.4163719  20.4228019   5.7211751  68.5889335
  21.1252062   6.1732795  69.0563262  20.0908647   5.0795570  69.2169228
  28.1817162  11.3200543  76.6411750  29.0034606  10.9180731  76.3594431
  28.1779565  11.2168777  77.5927866  21.9473766  10.8684587  78.7972460
  22.0118198  11.3304994  79.6330632  21.2384690  10.2381951  78.9254770
  36.2723155   7.6639292  72.9896721  35.5186864   7.0946690  72.8340726
  36.4070697   7.6301956  73.9367356  21.6621783  12.5352694  68.6651441
  21.5267458  13.3804230  69.0936288  22.2031596  12.7371972  67.9017374
  15.1151181  10.0528132  69.2379366  15.6275701  10.8471382  69.3884930
  15.7673894   9.3554423  69.1712967  16.9246066  13.1693888  71.3202119
  17.1012694  14.0911853  71.1323103  17.7202899  12.8552308  71.7496499
  23.2890260  13.1576261  82.7951783  22.8454114  12.3712639  82.4772687
  23.9507473  13.3455411  82.1295673  18.0477381  14.6872062  77.3212461
  18.5984806  14.5589126  76.5489455  17.2088857  14.9866951  76.9707354
  25.3871498  13.4379060  80.8233184  25.3689973  14.2587942  80.3313453
  26.3091418  13.3133136  81.0483325  21.8444552  10.9523190  81.6656692
  22.3772889  10.1911478  81.4356000  21.3158633  10.6596842  82.4080847
  24.9764530   6.0491867  65.7022769  24.4611153   6.8196472  65.9411157
  24.7041838   5.3757003  66.3255831  29.9498804   8.8024222  67.6375943
  29.1728247   8.4635381  67.1931105  30.6290285   8.8076845  66.9630908
  24.7650833   3.9218959  67.5282550  24.4600968   4.2365108  68.3792694
  25.7181275   4.0000379  67.5709883  23.2097265  10.0809182  69.1775504
  22.6818626   9.3461942  68.8648742  22.7084767  10.8583859  68.9315473
  28.1890111   8.2758203  74.2942551  27.5313785   8.9657464  74.3822679
  28.9930510   8.6654635  74.6376537  26.9995570   6.6302576  72.3446492
  27.5127451   7.2632567  72.8468202  27.6496793   6.0303771  71.9789852
  21.3549865   7.8989393  62.1810477  20.4476927   7.6678646  62.3801626
  21.8520897   7.1027012  62.3684459  24.2617944  16.6086900  65.1007163
  23.5879643  16.9118597  65.7092121  24.6483766  17.4115980  64.7512621
  23.4776400   4.1052031  74.5904833  22.5598962   4.3266978  74.4326521
  23.8936544   4.1798342  73.7316540  24.2611448   5.5043447  69.7207513
  25.0083267   6.0164844  69.4114635  24.5303038   5.1827500  70.5811907
  22.5338098   8.0001988  66.7034467  21.6249318   7.7161020  66.8006937
  22.5633182   8.4201066  65.8437774  27.7657366  11.6108577  70.4725635
  27.3119693  10.7699487  70.5290825  27.1351332  12.2469975  70.8100415
  26.7090285   2.5400563  71.7026302  25.9713042   2.0277949  72.0336545
  26.9617059   2.1000945  70.8909579  26.2090305  13.4485074  71.4075453
  26.5013279  14.0090131  70.6887819  26.7188926  13.7413635  72.1628612
  21.0822992   5.6130608  72.8044263  21.1371602   4.6604445  72.7286739
  20.2714194   5.7690047  73.2885561  22.2314186   9.5410731  64.0422546
  21.7933616   8.8246590  63.5828183  22.9724627   9.7686846  63.4807637
  21.1723930  14.2265425  72.4968906  21.1300109  14.4526271  71.5677438
  22.0886629  13.9928799  72.6454707  24.6189564   4.6949492  79.3949536
  24.9738952   4.9220966  80.2544001  25.2661695   5.0267869  78.7726791
  30.3487301   7.8167928  70.0998865  30.2105200   8.0069524  69.1720054
  29.9923520   8.5787311  70.5566916  30.3756681   9.8844455  75.1110136
  30.8093187   9.7919744  75.9593190  31.0888261   9.8601956  74.4730152
  19.2889731  11.1028454  72.2930869  20.0830329  10.6078774  72.0913444
  18.5781423  10.5746317  71.9298575  24.1084575  13.4846549  76.6443237
  24.1621598  14.0537486  77.4120953  23.2399357  13.6548434  76.2797274
  31.2372230   9.9268156  77.6443021  31.4308120  10.8313966  77.8902296
  31.1372848   9.4675575  78.4781606  26.2987339  10.0774899  83.2183902
  26.1472845   9.8485450  82.3013986  26.2892018  11.0345500  83.2315247
  23.0672675   7.6506811  78.2030169  23.9964735   7.8017971  78.0299136
  22.6463705   7.7390832  77.3478815  21.8661007  11.6757476  75.9728706
  21.7272093  11.3076260  76.8454644  21.0775603  12.1905115  75.8012664
  22.4609159  16.7766572  67.3154243  22.6360915  16.3054616  68.1299865
  21.7741947  17.4032339  67.5435503  23.4166222  11.0539079  73.3617544
  23.0816055  11.0139849  74.2575194  22.9170168  10.3883794  72.8887954
  26.3525414   8.3995113  63.6354604  25.7354584   7.6741941  63.5387656
  25.8841902   9.1604473  63.2921678  20.0192767   6.1726668  78.3753805
  20.7292385   5.5319860  78.3340423  19.9762075   6.4239563  79.2979986
  28.0079545  13.1094021  81.2960384  27.9492092  12.4253241  80.6290967
  28.4099064  13.8513011  80.8441010  17.0270244  19.9255935  74.0894103
  17.2666842  20.5574459  74.7673121  16.1839441  19.5743975  74.3759462
  28.0096953  11.0733605  79.5274364  27.1223731  10.7359527  79.6500762
  28.5795504  10.3416636  79.7643129  21.5398106  15.7335058  76.4935607
  21.4668278  16.5390029  77.0054911  21.0975499  15.9327023  75.6683628
  21.3287886  14.9706828  70.0038428  20.5455408  15.5128508  70.0976653
  22.0280631  15.4880807  70.4032670  32.4914293   6.4841823  74.2890925
  32.4804169   7.3666538  73.9184858  31.6231673   6.1313373  74.0945462
  23.9996790  15.6321892  78.6493765  24.7124762  16.2669356  78.5769667
  23.5086818  15.7285758  77.8333767  25.7214317   9.5373144  70.2211057
  24.7870595   9.6574607  70.0515761  25.8990985   8.6345611  69.9571067
  29.1086868   5.3790464  70.7561091  29.5747320   6.2118455  70.6821394
  29.5594368   4.9135445  71.4606350  19.0508703  13.3816335  79.4699336
  19.7518163  14.0152818  79.6228731  18.5803818  13.7231067  78.7094976
  27.1763099  11.7234285  67.7547243  27.4522943  11.6090879  68.6641117
  26.3067598  11.3251770  67.7159416  26.8509989   5.9360942  77.2951887
  26.1981439   6.1836850  76.6404339  27.2290369   5.1225081  76.9614364
  23.8117163  15.9720636  71.3980057  23.9939558  15.1542292  71.8607809
  24.6350149  16.1888328  70.9604947  24.1459328  14.8988821  68.6595105
  24.6747095  14.3881275  68.0465268  24.4087548  14.5831351  69.5240638
  22.8997562   6.6780754  83.7817924  22.2238199   6.5774883  84.4520299
  23.7225196   6.5219967  84.2453921  14.6476421  12.9152690  76.4030439
  15.2329858  12.1696378  76.5358343  14.4501260  13.2256647  77.2867103
  17.5015076  15.9503937  71.4192881  16.8325452  16.4350065  70.9356921
  17.3627946  16.1973158  72.3336260  21.6420345  17.9847681  78.0175540
  22.1938653  18.1479302  78.7824625  21.9826538  18.5752119  77.3455565
  26.4931219  12.8108939  83.8724194  27.0371123  13.4238897  83.3779149
  25.9118064  13.3688517  84.3891207  24.7788732  15.9329657  75.0039222
  24.6539872  15.1319396  74.4950167  25.4367823  16.4275850  74.5153192
  26.8423641  13.7338677  76.6318772  25.8953976  13.6144028  76.5597099
  27.1906414  12.8461175  76.7145033  23.8470074  13.5291393  72.8323124
  23.6995036  12.6008100  73.0130694  24.6723567  13.5511484  72.3480199
  27.4504196  14.3519952  73.9187997  28.3750743  14.1462813  73.7812448
  27.2819499  14.1036353  74.8277338  27.2399512  14.8705619  69.2750088
  27.4136390  14.3052041  68.5223941  27.7328403  15.6706514  69.0929578
  33.0938903   7.6342042  70.8940388  33.5370049   6.8849367  70.4959511
  32.2165413   7.6252178  70.5114120  28.2274685  14.1872383  66.3746987
  28.9225589  14.8079076  66.5934301  28.5697835  13.3367735  66.6499365
  30.1266108  11.6372089  67.9034317  30.6517432  11.9759362  67.1783637
  30.0388460  10.7019104  67.7197452  21.7886156  15.5506163  80.0324194
  22.0973283  15.3055309  80.9046894  22.5861638  15.7552801  79.5443064
  21.8106768  17.7044072  72.2629571  21.3711759  17.2120451  72.9562427
  22.5614885  17.1617040  72.0221646  14.2899107  13.8955613  72.2654199
  15.1157127  13.5959385  71.8852842  13.9393159  13.1263236  72.7143987
  19.2580641  13.2482081  74.3351872  18.6360650  12.5852786  74.0354100
  19.9285507  13.2743213  73.6525520  12.4907712  11.8141940  73.2243132
  11.6539621  11.3864114  73.0427134  12.4631358  12.0074383  74.1613924
  29.8160014  12.2704993  83.2085515  29.0255557  12.2529131  82.6690015
  29.5793368  12.8093286  83.9634552  29.9357889   9.1197459  80.5218244
  29.9855894   8.9547466  81.4633767  29.8271812   8.2524718  80.1316125
  18.8194147  11.7986005  67.8110333  18.9682268  12.4821469  67.1577006
  19.6260591  11.7791095  68.3259789  27.2261651   5.1028387  81.8377551
  28.1271514   4.9634852  81.5461548  27.3009626   5.2682842  82.7775728
  31.4376086  11.5394400  80.7660265  31.1460894  11.9024381  81.6023726
  30.8248217  10.8261409  80.5873598  32.6371768   9.1047280  73.2862836
  33.4718659   9.5437084  73.4500396  32.7730897   8.6285933  72.4671081
  29.6863274   6.6627015  79.2340323  30.1617395   6.8554661  78.4259175
  28.7628839   6.7186201  78.9883707  16.5746780   7.8251182  68.8171402
  16.3292822   6.9213512  69.0151612  16.7442695   7.8268333  67.8750880
  22.3189553  14.2934135  65.2822080  21.7463520  14.9124322  64.8292552
  22.8922347  14.8433497  65.8162002  28.3864943   3.5392775  77.4668629
  29.3382366   3.6390873  77.4880853  28.2168393   2.7471044  77.9766713
  26.4079322   0.6248358  77.6528030  25.8129254   0.9053371  76.9574519
  26.1229019   1.1142259  78.4244771  25.5386813  14.5771285  66.4130663
  26.4717486  14.5116847  66.6163538  25.4510026  15.4127552  65.9545195
  28.1674829  13.8937156  63.3734610  28.0888461  13.5597019  64.2670368
  28.9884496  14.3858923  63.3726082  30.8653021   6.7598895  76.5810929
  30.8329341   5.8214896  76.7670613  31.4753644   6.8382932  75.8476754
  22.7036351   5.6294948  62.6238133  23.6495456   5.5001156  62.6926551
  22.3250596   4.8909610  63.1007561  31.0147509   3.5509938  76.6269212
  30.4986558   2.7668395  76.4399141  31.8987458   3.2228655  76.7915731
  36.6829570   7.8214902  75.7216966  37.4132959   7.5600190  76.2824669
  36.0736516   7.0843624  75.7619034  34.7644868   5.9622764  76.3191417
  34.0378031   5.8278729  75.7107908  34.3492154   6.2699593  77.1248135
  22.5875044   9.6812694  84.0838790  23.5078053   9.8591293  84.2778836
  22.5524627   8.7368739  83.9318489  15.5837117   7.5913729  76.7261571
  15.8023126   8.5230836  76.7449605  15.9962890   7.2321703  77.5116375
  20.3196252   6.5944073  84.9329381  19.8363334   7.3944433  85.1393271
  20.4057191   6.6052018  83.9796825  16.2469589  10.4848608  76.9697815
  17.2012843  10.4532550  76.9027747  16.0482113  10.0239232  77.7848041
  16.8368972   9.0549724  79.5368613  17.6561861   9.5493803  79.5603450
  17.1105779   8.1381692  79.5086180  26.5935568   1.4460476  68.8996568
  25.7061423   1.7310127  68.6816763  27.0089557   1.2854240  68.0523845
  29.9450104   1.4706997  72.6150908  30.7210494   1.9603450  72.8875525
  29.2198238   1.8965051  73.0722777  32.3822662   2.1834616  73.6724848
  32.9767153   1.9430352  72.9618157  32.4549246   1.4641747  74.2998385
  14.6019818  16.0268227  73.9868013  14.4674286  15.2668628  73.4206011
  14.1851880  16.7509127  73.5196802  25.7378781  11.2105151  62.9944588
  26.4414631  11.4155153  63.6102244  25.0141430  11.7781913  63.2593672
  26.5676591   6.9615012  69.1146859  26.5111793   7.4183564  68.2754491
  27.1204934   6.2005697  68.9369701  30.3781397   2.7504744  69.9396978
  30.1218332   2.3501380  70.7705186  29.7534265   3.4648538  69.8147117
  34.6893735   5.4900817  72.4468270  34.1293293   5.5594007  73.2199832
  34.0837239   5.3141802  71.7267766  17.7588944  16.9237544  74.1986456
  17.6421328  17.8682977  74.0965146  16.9381390  16.6211106  74.5872255
  27.6465479  11.6487680  65.0443048  28.4811083  11.2168879  64.8620523
  27.4849822  11.4769694  65.9719943  27.3011371   8.1519793  66.4099388
  27.2460175   7.9864065  65.4687832  26.6757426   8.8595826  66.5661578
  24.6157278  10.4568705  85.7352951  25.4848438  10.6309358  85.3739585
  24.1364029  11.2763122  85.6128680  18.7843458  17.5765806  77.4142384
  19.6870705  17.6089417  77.7308879  18.5580828  16.6466257  77.4288720
  20.5397060  16.3296793  74.0752463  19.5892691  16.3298654  73.9616835
  20.8429546  15.5829527  73.5588497  36.2749754  22.1657331  75.1398225
  36.9128164  22.0464079  74.4361565  36.1570597  23.1138175  75.1986177
  33.0839460  22.1184759  75.0759750  32.7457971  22.0025824  74.1880285
  33.9529228  21.7175924  75.0560756  28.9426276  23.9720236  71.0656641
  28.3791141  23.8810173  70.2972929  28.8278671  23.1520140  71.5459133
  33.5659243  23.2719611  81.0345955  33.5547884  22.8772409  80.1626459
  33.7279882  22.5385684  81.6279727  26.4890708  25.4671427  73.9040861
  27.2812000  25.1262252  73.4887161  26.7287358  25.5766402  74.8243015
  34.5225834  27.6391203  66.3771106  33.8713814  28.2245284  65.9905120
  35.3170197  28.1697398  66.4366143  28.4481462  24.7280341  66.7758240
  29.2212338  24.1809328  66.6371116  28.8006860  25.5924590  66.9872702
  30.2866504  26.0556723  79.9825139  29.9956370  26.9602354  79.8671806
  30.9223488  26.0973251  80.6969209  31.2122711  23.4333571  76.5726499
  31.8086283  23.2089594  75.8583462  31.2697682  22.6918317  77.1751947
  30.7847739  20.8873007  64.4076690  31.0373260  20.3654528  63.6460153
  29.8472298  20.7239152  64.5103374  35.8291022  19.8908785  72.2151433
  36.6154111  19.4728208  71.8641850  36.0929727  20.7954877  72.3833082
  41.2299449  19.8284018  73.1184412  41.9624621  19.2583235  73.3522241
  40.4738805  19.4405619  73.5590917  30.5044028  22.7901113  66.6101065
  30.3880286  22.1146016  67.2782149  30.6146288  22.3033487  65.7933218
  32.8475569  22.2511260  70.3147754  32.4833776  21.7241881  71.0260676
  33.7042685  21.8609729  70.1414240  38.7524870  13.5405592  77.5779020
  38.4208194  14.4101003  77.3540235  38.1570483  13.2241876  78.2573051
  32.4881056  17.2801160  65.3109103  32.6555458  18.1481396  65.6779574
  32.2978225  17.4428441  64.3870392  35.2456389  25.7418138  76.9774933
  34.9457112  26.6443177  76.8690740  34.9007449  25.4750322  77.8296086
  28.6968871  22.1931935  73.0111638  27.7719367  22.0608149  73.2189329
  28.9453284  22.9726155  73.5081580  38.6453533  18.2600679  74.6572370
  37.7370410  18.1916087  74.3631131  38.5941129  18.7372624  75.4854196
  32.4670277  19.7358817  66.2955770  32.3469902  20.1815868  67.1341250
  31.7722865  20.0844135  65.7369308  26.0577682  21.8365209  73.8455427
  26.1870063  22.0899688  74.7594838  25.3775133  22.4292917  73.5260082
  30.2277169  32.5062459  69.9445901  30.1501199  33.4570284  70.0234381
  29.6238813  32.1608331  70.6020827  32.7194399  19.6790324  82.6007268
  31.9427733  20.2384244  82.5910132  33.3584962  20.1647107  83.1222138
  40.5115179  16.4617117  76.4350244  39.8689560  16.7549650  75.7890039
  40.0070108  16.3470037  77.2403441  30.9740771  22.4875778  82.1625235
  31.7155455  23.0260822  81.8860058  30.2677757  23.1142066  82.3196787
  36.4496111  24.6304918  80.7597396  36.8579467  24.1887329  80.0152029
  35.7273372  24.0557546  81.0131589  32.8027181  19.5677525  78.1330953
  33.6488376  19.9916938  78.2765602  32.7425818  18.9111149  78.8269516
  36.7724925  25.1906109  74.5149685  36.1433788  25.3551823  73.8125753
  36.3850587  25.6047718  75.2860649  35.9526626  17.2281893  79.7912127
  35.7087558  17.9823954  79.2546402  36.2286557  17.6067241  80.6259374
  37.9065089  23.7720506  78.4689392  38.1181984  24.4152265  77.7923773
  37.8594837  22.9382822  78.0011322  35.5091318  16.3838326  75.3725965
  34.6475797  16.6819580  75.6642702  35.5353752  16.6008725  74.4406997
  32.3252887  24.9280517  71.7799770  32.7891233  25.2068220  70.9904393
  32.0609685  24.0263961  71.5972861  29.2176968  24.4751998  74.7179533
  29.7878325  24.9039267  74.0797018  29.8085080  24.1934583  75.4163719
  31.2621773  21.0503669  68.5889335  31.9645817  21.5024713  69.0563262
  30.9302402  20.4087488  69.2169228  29.7102135  19.6415426  82.9640545
  29.0800795  20.3231707  83.1975942  29.6038223  19.5298507  82.0193683
  25.0047107  19.3087222  73.8906469  24.2146161  19.5644750  73.4146580
  25.4958355  20.1235560  73.9958509  39.0210917  26.6492461  76.6411750
  39.8428361  26.2472648  76.3594431  39.0173320  26.5460695  77.5927866
  26.9561853  19.6731801  70.8489946  26.1593016  19.7850495  71.3673441
  26.7287445  20.0118453  69.9830836  32.7867520  26.1976504  78.7972460
  32.8511953  26.6596911  79.6330632  32.0778444  25.5673869  78.9254770
  23.2884810  19.5617712  76.3221460  23.5392849  20.4464722  76.5879036
  23.8244359  19.3822314  75.5496552  32.5015538  27.8644612  68.6651441
  32.3661213  28.7096147  69.0936288  33.0425350  28.0663889  67.9017374
  28.9882878  13.9436192  85.3265796  28.5949823  13.3902390  86.0013440
  29.8049018  14.2546770  85.7172313  25.9544935  25.3820050  69.2379366
  26.4669456  26.1763300  69.3884930  26.6067648  24.6846340  69.1712967
  27.7639820  28.4985806  71.3202119  27.9406448  29.4203771  71.1323103
  28.5596654  28.1844225  71.7496499  31.9050839  15.3594071  82.9186052
  32.6460552  15.9601224  82.8390515  32.1368761  14.6171708  82.3604095
  27.0492177  20.5450438  81.1964282  26.9345692  19.6435695  81.4971381
  26.1936694  20.7914135  80.8449099  34.1284014  28.4868178  82.7951783
  33.6847868  27.7004557  82.4772687  34.7901228  28.6747329  82.1295673
  28.8871135  30.0163980  77.3212461  29.4378561  29.8881043  76.5489455
  28.0482611  30.3158869  76.9707354  36.2265252  28.7670978  80.8233184
  36.2083728  29.5879859  80.3313453  37.1485172  28.6425053  81.0483325
  32.6838307  26.2815108  81.6656692  33.2166643  25.5203396  81.4356000
  32.1552388  25.9888759  82.4080847  35.8508001  11.3875174  77.1950334
  35.5072271  12.2776815  77.1189445  36.2186964  11.1976831  76.3319919
  23.9193852  23.7108704  70.0138936  24.7569074  24.1205712  69.7972644
  24.0972120  22.7708146  69.9839130  33.4005395  16.2233486  70.7608008
  32.5446992  15.8340336  70.5813646  33.8132347  16.3025446  69.9007793
  34.9304542  13.7579829  75.1599567  34.4269337  13.7209964  74.3467373
  35.2235149  14.6672571  75.2196224  31.1747428  13.8418558  74.1665749
  32.0400425  13.6461367  73.8071638  31.2424937  13.6128910  75.0935106
  35.6044587  19.2510877  67.5282550  35.2994723  19.5657026  68.3792694
  36.5575029  19.3292297  67.5709883  34.0491019  25.4101100  69.1775504
  33.5212381  24.6753860  68.8648742  33.5478522  26.1875776  68.9315473
  39.0283865  23.6050121  74.2942551  38.3707540  24.2949382  74.3822679
  39.8324264  23.9946553  74.6376537  28.7809747  16.0720766  71.5382116
  29.3553499  15.8495948  70.8055309  29.3680729  16.1409461  72.2910717
  37.8389324  21.9594493  72.3446492  38.3521206  22.5924485  72.8468202
  38.4890548  21.3595689  71.9789852  29.1079334  18.1025227  65.5578001
  28.2716646  18.4399914  65.8787276  28.9684104  17.9674207  64.6205138
  31.0832415  12.9462015  70.2657185  30.4296827  12.6311032  69.6413800
  31.0412889  12.3237756  70.9917008  32.1943619  23.2281310  62.1810477
  31.2870681  22.9970564  62.3801626  32.6914651  22.4318930  62.3684459
  35.1011698  31.9378818  65.1007163  34.4273397  32.2410514  65.7092121
  35.4877520  32.7407898  64.7512621  34.3170155  19.4343949  74.5904833
  33.3992716  19.6558896  74.4326521  34.7330299  19.5090259  73.7316540
  35.1005203  20.8335365  69.7207513  35.8477022  21.3456762  69.4114635
  35.3696792  20.5119417  70.5811907  33.3731853  23.3293905  66.7034467
  32.4643072  23.0452938  66.8006937  33.4026937  23.7492984  65.8437774
  38.6051120  26.9400495  70.4725635  38.1513447  26.0991405  70.5290825
  37.9745087  27.5761893  70.8100415  37.5484040  17.8692481  71.7026302
  36.8106797  17.3569867  72.0336545  37.8010813  17.4292862  70.8909579
  37.0484059  28.7776991  71.4075453  37.3407034  29.3382049  70.6887819
  37.5582680  29.0705552  72.1628612  37.6495667  10.6468733  72.2968072
  37.9554544   9.7866096  72.0093987  38.3748272  11.2386353  72.0967066
  23.9420023  21.0499419  70.6849670  23.7444423  20.4568780  69.9600736
  23.3866687  20.7451630  71.4025608  31.9216747  20.9422526  72.8044263
  31.9765357  19.9896362  72.7286739  31.1107949  21.0981965  73.2885561
  33.0707941  24.8702649  64.0422546  32.6327371  24.1538508  63.5828183
  33.8118382  25.0978764  63.4807637  29.8609107  19.5599586  70.5634642
  29.0476972  19.8593756  70.9699834  30.3568101  19.1655274  71.2809124
  32.0117685  29.5557343  72.4968906  31.9693863  29.7818189  71.5677438
  32.9280384  29.3220717  72.6454707  35.4583318  20.0241410  79.3949536
  35.8132706  20.2512883  80.2544001  36.1055450  20.3559787  78.7726791
  29.3523182  17.1317941  76.1795877  29.9922561  16.9906700  75.4818840
  28.5200712  16.8452455  75.8034479  30.1283485  26.4320372  72.2930869
  30.9224084  25.9370692  72.0913444  29.4175178  25.9038235  71.9298575
  34.9478330  28.8138467  76.6443237  35.0015352  29.3829403  77.4120953
  34.0793111  28.9840352  76.2797274  26.4366249  20.5763453  68.3690622
  25.5063837  20.5147909  68.5860584  26.5323721  20.0539406  67.5727263
  26.3551798  17.1018266  70.9568863  26.6158615  18.0163599  70.8478024
  27.1768970  16.6342709  71.1065476  27.8276723  18.5156023  78.1267688
  28.4999777  18.3073385  77.4780337  27.0006510  18.3178109  77.6872920
  42.0765985  25.2560074  77.6443021  42.2701875  26.1605884  77.8902296
  41.9766603  24.7967493  78.4781606  33.7302295  15.1417964  80.1433349
  33.0830210  15.8407914  80.0497825  34.5003311  15.5754108  80.5109597
  37.1381093  25.4066816  83.2183902  36.9866600  25.1777368  82.3013986
  37.1285773  26.3637418  83.2315247  33.9066430  22.9798729  78.2030169
  34.8358490  23.1309889  78.0299136  33.4857460  23.0682750  77.3478815
  32.7054761  27.0049394  75.9728706  32.5665847  26.6368178  76.8454644
  31.9169358  27.5197033  75.8012664  33.3002913  32.1058490  67.3154243
  33.4754669  31.6346533  68.1299865  32.6135701  32.7324256  67.5435503
  34.2559977  26.3830996  73.3617544  33.9209809  26.3431766  74.2575194
  33.7563922  25.7175712  72.8887954  28.2304221  21.7898626  78.8870125
  28.0924018  21.0578865  79.4881664  29.1409144  21.7007526  78.6054313
  30.8586521  21.5018586  78.3753805  31.5686140  20.8611778  78.3340423
  30.8155829  21.7531480  79.2979986  38.8473300  28.4385939  81.2960384
  38.7885846  27.7545159  80.6290967  39.2492818  29.1804929  80.8441010
  29.5715455  18.4883803  80.1949444  29.0352812  18.0374542  80.8471041
  28.9832164  18.6229712  79.4519909  27.8663999  35.2547853  74.0894103
  28.1060597  35.8866377  74.7673121  27.0233195  34.9035893  74.3759462
  28.9817714  17.9472455  62.7575908  28.1047180  17.8261256  62.3938155
  29.4575467  17.1558533  62.5054797  38.8490707  26.4025523  79.5274364
  37.9617486  26.0651445  79.6500762  39.4189258  25.6708554  79.7643129
  20.5019854  22.7349615  72.8517415  21.1890894  22.4211345  72.2638430
  20.3467983  23.6390979  72.5784666  25.3054576  17.6239811  77.2802439
  25.2212765  17.0165481  76.5452849  24.4837283  18.1148829  77.2811935
  32.3791861  31.0626975  76.4935607  32.3062032  31.8681947  77.0054911
  31.9369254  31.2618941  75.6683628  32.1681640  30.2998745  70.0038428
  31.3849162  30.8420425  70.0976653  32.8674385  30.8172725  70.4032670
  35.4778290  16.1093375  72.6472634  35.9746990  15.3563337  72.3273704
  34.7065272  16.1457691  72.0815843  34.8390544  30.9613809  78.6493765
  35.5518516  31.5961274  78.5769667  34.3480573  31.0577675  77.8333767
  36.5608071  24.8665062  70.2211057  35.6264350  24.9866524  70.0515761
  36.7384739  23.9637529  69.9571067  32.0613259  18.2510758  72.3744318
  31.6911047  17.6981798  73.0625224  32.5572352  17.6468891  71.8219318
  39.9480622  20.7082381  70.7561091  40.4141075  21.5410373  70.6821394
  40.3988123  20.2427363  71.4606350  29.8902458  28.7108253  79.4699336
  30.5911917  29.3444736  79.6228731  29.4197573  29.0522984  78.7094976
  38.0156853  27.0526202  67.7547243  38.2916697  26.9382797  68.6641117
  37.1461352  26.6543687  67.7159416  37.9197285  13.0762968  74.7951993
  37.0060365  13.3067195  74.9634200  38.3490387  13.1601412  75.6466025
  37.6903744  21.2652860  77.2951887  37.0375194  21.5128768  76.6404339
  38.0684123  20.4516998  76.9614364  34.6510917  31.3012553  71.3980057
  34.8333312  30.4834209  71.8607809  35.4743903  31.5180246  70.9604947
  34.9853083  30.2280738  68.6595105  35.5140849  29.7173193  68.0465268
  35.2481303  29.9123269  69.5240638  33.7391317  22.0072671  83.7817924
  33.0631954  21.9066801  84.4520299  34.5618951  21.8511885  84.2453921
  25.4870176  28.2444608  76.4030439  26.0723613  27.4988296  76.5358343
  25.2895014  28.5548564  77.2867103  28.3408831  31.2795855  71.4192881
  27.6719206  31.7641983  70.9356921  28.2021701  31.5265076  72.3336260
  20.0787830  20.8150208  75.1234882  20.1171930  20.2813799  75.9172000
  19.5728123  20.2885413  74.5045859  32.4814099  33.3139599  78.0175540
  33.0332408  33.4771220  78.7824625  32.8220293  33.9044036  77.3455565
  27.4578593  15.6614748  78.6197424  27.5219919  16.5229579  78.2074822
  27.3945713  15.0488750  77.8869783  26.9330865  17.7337881  82.2670459
  27.5602904  17.3514958  82.8807983  26.0758784  17.5152083  82.6326151
  37.3324974  28.1400856  83.8724194  37.8764878  28.7530814  83.3779149
  36.7511819  28.6980435  84.3891207  23.7096408  19.5414310  68.1988814
  24.0049849  18.6324989  68.1455867  22.8084444  19.5202050  67.8769816
  35.6182487  31.2621574  75.0039222  35.4933626  30.4611314  74.4950167
  36.2761578  31.7567768  74.5153192  27.2390655  17.6170307  74.1816362
  26.5177241  18.2306274  74.0423835  28.0283911  18.1528072  74.1033008
  37.6817395  29.0630594  76.6318772  36.7347731  28.9435945  76.5597099
  38.0300168  28.1753092  76.7145033  30.0416969  14.9524733  80.4557014
  30.5651370  15.1987030  81.2183323  29.8229302  15.7844768  80.0360151
  25.4384250  17.2228408  68.3228139  25.1096956  16.3425787  68.1403245
  25.7923620  17.1676076  69.2104528  34.6863828  28.8583311  72.8323124
  34.5388791  27.9300018  73.0130694  35.5117322  28.8803401  72.3480199
  28.5526073  17.5101378  68.6903616  28.8922145  18.0387299  67.9682225
  28.9998193  17.8481784  69.4662183  38.2897950  29.6811869  73.9187997
  39.2144498  29.4754731  73.7812448  38.1213254  29.4328270  74.8277338
  31.2469514  15.8938428  78.1406684  30.9066334  15.0946241  78.5427364
  30.5408520  16.1940139  77.5683518  31.8985985  12.9787741  76.5934007
  32.7212055  12.5048219  76.4712898  32.1424049  13.7578224  77.0932694
  30.5394220  16.0075999  66.8896909  31.2602582  16.3857252  66.3860626
  29.9159524  16.7264876  66.9931887  34.6825343  16.7121148  67.8255241
  34.8988957  17.5945786  67.5244070  34.2019410  16.3207362  67.0960883
  29.4224564  19.6706861  74.4025986  29.2769145  19.9847164  75.2950268
  28.9449768  20.2891762  73.8496885  31.2820947  16.6609409  74.4506876
  31.2682516  15.7650503  74.1139174  31.9993375  16.6680073  75.0845162
  33.1347078  17.0946750  76.4960003  32.8764856  18.0163820  76.4944333
  32.6032118  16.6977184  77.1860467  38.0793267  30.1997537  69.2750088
  38.2530144  29.6343959  68.5223941  38.5722158  30.9998432  69.0929578
  23.8970226  22.2112206  77.3413647  23.3523694  22.9872014  77.4733922
  24.7749576  22.5583010  77.1832769  30.6857843  15.5423790  69.7194446
  30.8073754  14.6140436  69.9185333  30.3959885  15.5562476  68.8072761
  33.5549033  13.2278700  72.8561166  33.5770730  13.2918033  71.9013145
  33.9717092  12.3883209  73.0501672  39.0668439  29.5164301  66.3746987
  39.7619344  30.1370994  66.5934301  39.4091589  28.6659652  66.6499365
  24.6836248  21.3382102  80.2343804  23.9417984  21.4864737  80.8208435
  24.3628992  21.5990368  79.3710553  40.9659862  26.9664007  67.9034317
  41.4911186  27.3051279  67.1783637  40.8782215  26.0311022  67.7197452
  32.6279911  30.8798080  80.0324194  32.9367037  30.6347227  80.9046894
  33.4255393  31.0844719  79.5443064  32.6500523  33.0335990  72.2629571
  32.2105513  32.5412369  72.9562427  33.4008640  32.4908958  72.0221646
  25.1292862  29.2247531  72.2654199  25.9550882  28.9251303  71.8852842
  24.7786914  28.4555153  72.7143987  30.0974395  28.5773999  74.3351872
  29.4754404  27.9144704  74.0354100  30.7679262  28.6035131  73.6525520
  23.3301467  27.1433857  73.2243132  22.4933375  26.7156032  73.0427134
  23.3025112  27.3366301  74.1613924  30.1698923  17.0555787  83.9284378
  30.2187078  17.9317910  83.5462148  30.7121437  16.5133180  83.3556022
  40.6553768  27.5996910  83.2085515  39.8649312  27.5821049  82.6690015
  40.4187123  28.1385204  83.9634552  40.7751643  24.4489377  80.5218244
  40.8249648  24.2839384  81.4633767  40.6665567  23.5816636  80.1316125
  29.6587902  27.1277922  67.8110333  29.8076022  27.8113387  67.1577006
  30.4654345  27.1083012  68.3259789  38.0655406  20.4320305  81.8377551
  38.9665268  20.2926770  81.5461548  38.1403380  20.5974759  82.7775728
  32.3998211  17.8087159  80.6830737  31.5301520  18.1020725  80.4113326
  32.6357691  18.3927604  81.4038001  42.2769840  26.8686318  80.7660265
  41.9854648  27.2316299  81.6023726  41.6641971  26.1553326  80.5873598
  40.5257028  21.9918933  79.2340323  41.0011150  22.1846579  78.4259175
  39.6022594  22.0478119  78.9883707  27.4140535  23.1543100  68.8171402
  27.1686577  22.2505430  69.0151612  27.5836449  23.1560250  67.8750880
  35.1037245  14.0266776  78.1996157  35.6219189  14.7627803  77.8742646
  34.7492378  14.3330770  79.0342916  26.6836182  18.8871458  66.3157563
  25.9905427  18.9615813  65.6597599  26.4387934  18.1231801  66.8379080
  35.3549839  10.4467059  73.7197054  35.6351593   9.7790248  74.3457481
  36.1400446  10.6396154  73.2071718  33.1583307  29.6226053  65.2822080
  32.5857275  30.2416240  64.8292552  33.7316101  30.1725414  65.8162002
  39.2258697  18.8684693  77.4668629  40.1776120  18.9682791  77.4880853
  39.0562148  18.0762961  77.9766713  37.2473077  15.9540276  77.6528030
  36.6523009  16.2345289  76.9574519  36.9622773  16.4434177  78.4244771
  36.3780567  29.9063203  66.4130663  37.3111240  29.8408765  66.6163538
  36.2903780  30.7419470  65.9545195  41.7046775  22.0890813  76.5810929
  41.6723095  21.1506813  76.7670613  42.3147399  22.1674849  75.8476754
  33.5430106  20.9586866  62.6238133  34.4889211  20.8293074  62.6926551
  33.1644351  20.2201527  63.1007561  41.8541264  18.8801856  76.6269212
  41.3380312  18.0960313  76.4399141  42.7381212  18.5520573  76.7915731
  39.5151990  12.6242872  72.5865025  39.3176812  12.3157960  73.4708357
  40.1251696  13.3504510  72.7162954  45.6038622  21.2914682  76.3191417
  44.8771786  21.1570647  75.7107908  45.1885909  21.5991511  77.1248135
  33.4268798  25.0104612  84.0838790  34.3471808  25.1883211  84.2778836
  33.3918382  24.0660657  83.9318489  31.7273023  18.8836842  62.5593018
  30.8204478  18.5869955  62.6355732  32.0049004  18.5866660  61.6927304
  22.6450963  20.2043205  73.0092064  22.3253748  19.3508514  72.7166438
  22.0984392  20.4191783  73.7650032  26.4230871  22.9205646  76.7261571
  26.6416881  23.8522754  76.7449605  26.8356645  22.5613621  77.5116375
  33.3435089  13.4273732  68.7137259  32.5335817  13.0820817  69.0892505
  34.0319506  13.1181275  69.3024871  35.2725637  12.5051778  70.3361556
  35.8256676  12.9247232  70.9951579  35.5095723  11.5787527  70.3784512
  31.2958736  18.4938852  86.1164320  31.1955463  19.4433209  86.0476411
  31.0780278  18.1657091  85.2440390  30.4971808  15.7423777  62.7004997
  31.3590972  16.0678675  62.9600815  30.6822152  14.9555273  62.1878063
  22.5139223  23.8246117  74.9785186  21.8202695  23.4100070  74.4655140
  23.2612214  23.8666653  74.3818605  38.6504444  14.6152304  69.8440220
  38.0703113  15.2737108  69.4618273  38.3840377  13.7929648  69.4327638
  37.1008011  14.0157361  72.0461541  37.6007789  14.1273896  71.2375859
  37.7443618  13.7118414  72.6862349  31.1590006  21.9235991  84.9329381
  30.6757088  22.7236351  85.1393271  31.2450945  21.9343936  83.9796825
  24.4275966  23.7564371  72.8551201  24.4046654  23.8552058  71.9033084
  24.7376603  24.6029521  73.1768367  27.0863344  25.8140526  76.9697815
  28.0406597  25.7824468  76.9027747  26.8875867  25.3531149  77.7848041
  27.6762726  24.3841642  79.5368613  28.4955615  24.8785720  79.5603450
  27.9499534  23.4673610  79.5086180  37.4329322  16.7752394  68.8996568
  36.5455177  17.0602045  68.6816763  37.8483311  16.6146157  68.0523845
  40.7843858  16.7998915  72.6150908  41.5604248  17.2895367  72.8875525
  40.0591993  17.2256969  73.0722777  43.2216417  17.5126534  73.6724848
  43.8160908  17.2722270  72.9618157  43.2943001  16.7933665  74.2998385
  25.4413573  31.3560145  73.9868013  25.3068041  30.5960546  73.4206011
  25.0245635  32.0801045  73.5196802  36.5772536  26.5397069  62.9944588
  37.2808386  26.7447071  63.6102244  35.8535184  27.1073831  63.2593672
  41.2175152  18.0796662  69.9396978  40.9612086  17.6793297  70.7705186
  40.5928020  18.7940456  69.8147117  28.5982699  32.2529462  74.1986456
  28.4815083  33.1974895  74.0965146  27.7775145  31.9503024  74.5872255
  38.4859233  26.9779598  65.0443048  39.3204837  26.5460796  64.8620523
  38.3243576  26.8061612  65.9719943  22.9297640  18.7179776  80.2360810
  23.5756504  18.2078730  80.7248035  22.7214791  19.4548457  80.8104235
  35.4551032  25.7860623  85.7352951  36.3242192  25.9601275  85.3739585
  34.9757784  26.6055040  85.6128680  31.4501251  12.9819820  65.9884706
  31.4379921  13.9261660  66.1452977  32.3424673  12.7989966  65.6944167
  29.6237213  32.9057724  77.4142384  30.5264459  32.9381334  77.7308879
  29.3974583  31.9758175  77.4288720  31.3790815  31.6588711  74.0752463
  30.4286446  31.6590572  73.9616835  31.6823301  30.9121445  73.5588497
  35.2653370   9.5762597  70.2430643  34.4985766   9.0221083  70.3887325
  35.6764075   9.6484466  71.1044795  27.2695131  15.8647393  84.3335824
  28.1326593  15.5084197  84.5439149  26.6960542  15.5261287  85.0211229
  43.9233214  37.4476677  75.0759750  43.5851726  37.3317742  74.1880285
  44.7922983  37.0467842  75.0560756  39.7820030  39.3012153  71.0656641
  39.2184895  39.2102090  70.2972929  39.6672425  38.4812058  71.5459133
  44.4052997  38.6011529  81.0345955  44.3941638  38.2064327  80.1626459
  44.5673637  37.8677601  81.6279727  37.3284462  40.7963345  73.9040861
  38.1205754  40.4554170  73.4887161  37.5681112  40.9058320  74.8243015
  39.2875216  40.0572258  66.7758240  40.0606092  39.5101245  66.6371116
  39.6400615  40.9216508  66.9872702  41.1260259  41.3848641  79.9825139
  40.8350125  42.2894271  79.8671806  41.7617243  41.4265168  80.6969209
  42.0516465  38.7625489  76.5726499  42.6480038  38.5381512  75.8583462
  42.1091437  38.0210235  77.1751947  41.3437783  38.1193030  66.6101065
  41.2274041  37.4437934  67.2782149  41.4540042  37.6325404  65.7933218
  46.0850144  41.0710056  76.9774933  45.7850867  41.9735095  76.8690740
  45.7401203  40.8042239  77.8296086  39.5362625  37.5223853  73.0111638
  38.6113122  37.3900067  73.2189329  39.7847038  38.3018072  73.5081580
  36.8971436  37.1657126  73.8455427  37.0263817  37.4191605  74.7594838
  36.2168888  37.7584834  73.5260082  43.5588153  35.0082242  82.6007268
  42.7821487  35.5676162  82.5910132  44.1978716  35.4939025  83.1222138
  41.8134526  37.8167695  82.1625235  42.5549210  38.3552739  81.8860058
  41.1071511  38.4433984  82.3196787  47.2889865  39.9596836  80.7597396
  47.6973221  39.5179246  80.0152029  46.5667127  39.3849463  81.0131589
  43.6420935  34.8969442  78.1330953  44.4882130  35.3208856  78.2765602
  43.5819573  34.2403067  78.8269516  46.7920381  32.5573811  79.7912127
  46.5481312  33.3115871  79.2546402  47.0680311  32.9359158  80.6259374
  43.1646642  40.2572434  71.7799770  43.6284987  40.5360137  70.9904393
  42.9003440  39.3555879  71.5972861  40.0570723  39.8043916  74.7179533
  40.6272080  40.2331184  74.0797018  40.6478835  39.5226501  75.4163719
  40.5495889  34.9707343  82.9640545  39.9194550  35.6523624  83.1975942
  40.4431977  34.8590425  82.0193683  35.8440862  34.6379139  73.8906469
  35.0539916  34.8936668  73.4146580  36.3352109  35.4527477  73.9958509
  37.7955607  35.0023719  70.8489946  36.9986770  35.1142413  71.3673441
  37.5681199  35.3410371  69.9830836  43.6261275  41.5268422  78.7972460
  43.6905707  41.9888829  79.6330632  42.9172199  40.8965787  78.9254770
  34.1278565  34.8909630  76.3221460  34.3786603  35.7756640  76.5879036
  34.6638113  34.7114231  75.5496552  39.8276632  29.2728109  85.3265796
  39.4343578  28.7194308  86.0013440  40.6442772  29.5838688  85.7172313
  36.7938690  40.7111967  69.2379366  37.3063210  41.5055218  69.3884930
  37.4461403  40.0138258  69.1712967  38.6033574  43.8277724  71.3202119
  38.7800203  44.7495688  71.1323103  39.3990408  43.5136143  71.7496499
  42.7444593  30.6885988  82.9186052  43.4854306  31.2893141  82.8390515
  42.9762516  29.9463626  82.3604095  37.8885931  35.8742356  81.1964282
  37.7739446  34.9727613  81.4971381  37.0330449  36.1206052  80.8449099
  44.9677769  43.8160096  82.7951783  44.5241623  43.0296474  82.4772687
  45.6294982  44.0039246  82.1295673  39.7264890  45.3455898  77.3212461
  40.2772315  45.2172961  76.5489455  38.8876366  45.6450787  76.9707354
  47.0659007  44.0962896  80.8233184  47.0477482  44.9171777  80.3313453
  47.9878927  43.9716971  81.0483325  43.5232061  41.6107025  81.6656692
  44.0560398  40.8495314  81.4356000  42.9946142  41.3180677  82.4080847
  34.7587607  39.0400622  70.0138936  35.5962829  39.4497630  69.7972644
  34.9365874  38.1000064  69.9839130  44.8884774  40.7393018  69.1775504
  44.3606135  40.0045777  68.8648742  44.3872276  41.5167694  68.9315473
  39.6203501  31.4012684  71.5382116  40.1947253  31.1787866  70.8055309
  40.2074484  31.4701379  72.2910717  34.7813778  36.3791337  70.6849670
  34.5838178  35.7860698  69.9600736  34.2260442  36.0743547  71.4025608
  42.7610501  36.2714444  72.8044263  42.8159111  35.3188280  72.7286739
  41.9501703  36.4273883  73.2885561  46.2977073  35.3533328  79.3949536
  46.6526461  35.5804801  80.2544001  46.9449204  35.6851705  78.7726791
  40.1916936  32.4609859  76.1795877  40.8316315  32.3198618  75.4818840
  39.3594467  32.1744372  75.8034479  40.9677240  41.7612289  72.2930869
  41.7617838  41.2662609  72.0913444  40.2568932  41.2330152  71.9298575
  45.7872084  44.1430385  76.6443237  45.8409107  44.7121321  77.4120953
  44.9186866  44.3132270  76.2797274  37.2760003  35.9055371  68.3690622
  36.3457592  35.8439826  68.5860584  37.3717475  35.3831324  67.5727263
  37.1945552  32.4310184  70.9568863  37.4552370  33.3455517  70.8478024
  38.0162725  31.9634626  71.1065476  38.6670478  33.8447941  78.1267688
  39.3393531  33.6365303  77.4780337  37.8400264  33.6470027  77.6872920
  44.5696050  30.4709882  80.1433349  43.9223965  31.1699832  80.0497825
  45.3397065  30.9046026  80.5109597  47.9774848  40.7358734  83.2183902
  47.8260354  40.5069286  82.3013986  47.9679527  41.6929335  83.2315247
  44.7460184  38.3090647  78.2030169  45.6752244  38.4601806  78.0299136
  44.3251214  38.3974668  77.3478815  43.5448516  42.3341311  75.9728706
  43.4059602  41.9660096  76.8454644  42.7563112  42.8488951  75.8012664
  45.0953731  41.7122914  73.3617544  44.7603564  41.6723684  74.2575194
  44.5957677  41.0467630  72.8887954  39.0697975  37.1190544  78.8870125
  38.9317773  36.3870783  79.4881664  39.9802899  37.0299444  78.6054313
  41.6980276  36.8310503  78.3753805  42.4079894  36.1903695  78.3340423
  41.6549584  37.0823398  79.2979986  40.4109210  33.8175721  80.1949444
  39.8746567  33.3666460  80.8471041  39.8225918  33.9521630  79.4519909
  31.3413609  38.0641532  72.8517415  32.0284649  37.7503262  72.2638430
  31.1861737  38.9682897  72.5784666  36.1448331  32.9531729  77.2802439
  36.0606520  32.3457398  76.5452849  35.3231037  33.4440747  77.2811935
  43.2185615  46.3918893  76.4935607  43.1455787  47.1973864  77.0054911
  42.7763008  46.5910859  75.6683628  45.6784299  46.2905727  78.6493765
  46.3912271  46.9253192  78.5769667  45.1874327  46.3869593  77.8333767
  40.7296212  44.0400170  79.4699336  41.4305672  44.6736653  79.6228731
  40.2591327  44.3814902  78.7094976  44.5785071  37.3364589  83.7817924
  43.9025708  37.2358718  84.4520299  45.4012705  37.1803803  84.2453921
  36.3263930  43.5736525  76.4030439  36.9117367  42.8280213  76.5358343
  36.1288769  43.8840482  77.2867103  39.1802585  46.6087773  71.4192881
  38.5112961  47.0933900  70.9356921  39.0415455  46.8556993  72.3336260
  30.9181585  36.1442126  75.1234882  30.9565684  35.6105716  75.9172000
  30.4121878  35.6177331  74.5045859  43.3207854  48.6431516  78.0175540
  43.8726162  48.8063138  78.7824625  43.6614047  49.2335954  77.3455565
  38.2972347  30.9906666  78.6197424  38.3613674  31.8521497  78.2074822
  38.2339467  30.3780668  77.8869783  37.7724620  33.0629799  82.2670459
  38.3996659  32.6806876  82.8807983  36.9152539  32.8444001  82.6326151
  48.1718728  43.4692774  83.8724194  48.7158632  44.0822732  83.3779149
  47.5905573  44.0272352  84.3891207  34.5490162  34.8706228  68.1988814
  34.8443604  33.9616906  68.1455867  33.6478198  34.8493967  67.8769816
  38.0784409  32.9462224  74.1816362  37.3570995  33.5598192  74.0423835
  38.8677665  33.4819989  74.1033008  40.8810723  30.2816651  80.4557014
  41.4045125  30.5278947  81.2183323  40.6623056  31.1136686  80.0360151
  36.2778004  32.5520325  68.3228139  35.9490710  31.6717704  68.1403245
  36.6317375  32.4967994  69.2104528  45.5257583  44.1875228  72.8323124
  45.3782545  43.2591936  73.0130694  46.3511076  44.2095319  72.3480199
  39.3919827  32.8393295  68.6903616  39.7315900  33.3679217  67.9682225
  39.8391948  33.1773701  69.4662183  42.0863268  31.2230346  78.1406684
  41.7460088  30.4238159  78.5427364  41.3802274  31.5232057  77.5683518
  42.7379740  28.3079658  76.5934007  43.5605809  27.8340137  76.4712898
  42.9817803  29.0870142  77.0932694  40.2618319  34.9998779  74.4025986
  40.1162899  35.3139082  75.2950268  39.7843522  35.6183679  73.8496885
  43.9740832  32.4238667  76.4960003  43.7158610  33.3455738  76.4944333
  43.4425873  32.0269102  77.1860467  34.7363981  37.5404123  77.3413647
  34.1917449  38.3163931  77.4733922  35.6143331  37.8874928  77.1832769
  35.5230003  36.6674020  80.2343804  34.7811739  36.8156655  80.8208435
  35.2022747  36.9282285  79.3710553  43.4673665  46.2089998  80.0324194
  43.7760792  45.9639145  80.9046894  44.2649147  46.4136636  79.5443064
  35.9686616  44.5539448  72.2654199  36.7944636  44.2543220  71.8852842
  35.6180668  43.7847071  72.7143987  40.9368150  43.9065917  74.3351872
  40.3148159  43.2436622  74.0354100  41.6073016  43.9327049  73.6525520
  34.1695221  42.4725775  73.2243132  33.3327130  42.0447949  73.0427134
  34.1418867  42.6658218  74.1613924  41.0092677  32.3847705  83.9284378
  41.0580832  33.2609827  83.5462148  41.5515191  31.8425098  83.3556022
  40.4981656  42.4569840  67.8110333  40.6469777  43.1405304  67.1577006
  41.3048100  42.4374930  68.3259789  48.9049160  35.7612222  81.8377551
  49.8059023  35.6218687  81.5461548  48.9797135  35.9266677  82.7775728
  43.2391965  33.1379077  80.6830737  42.3695275  33.4312643  80.4113326
  43.4751446  33.7219522  81.4038001  38.2534289  38.4835018  68.8171402
  38.0080331  37.5797348  69.0151612  38.4230204  38.4852168  67.8750880
  45.9430999  29.3558694  78.1996157  46.4612943  30.0919721  77.8742646
  45.5886132  29.6622687  79.0342916  37.5229937  34.2163375  66.3157563
  36.8299182  34.2907730  65.6597599  37.2781689  33.4523719  66.8379080
  48.0866831  31.2832194  77.6528030  47.4916763  31.5637206  76.9574519
  47.8016528  31.7726095  78.4244771  44.2662553  40.3396529  84.0838790
  45.1865562  40.5175128  84.2778836  44.2312136  39.3952575  83.9318489
  33.4844718  35.5335123  73.0092064  33.1647502  34.6800431  72.7166438
  32.9378146  35.7483701  73.7650032  37.2624626  38.2497564  76.7261571
  37.4810635  39.1814672  76.7449605  37.6750399  37.8905538  77.5116375
  42.1352491  33.8230770  86.1164320  42.0349218  34.7725127  86.0476411
  41.9174033  33.4949009  85.2440390  33.3532978  39.1538034  74.9785186
  32.6596449  38.7391987  74.4655140  34.1005969  39.1958571  74.3818605
  41.9983761  37.2527909  84.9329381  41.5150843  38.0528269  85.1393271
  42.0844700  37.2635853  83.9796825  35.2669720  39.0856288  72.8551201
  35.2440409  39.1843976  71.9033084  35.5770357  39.9321439  73.1768367
  37.9257098  41.1432443  76.9697815  38.8800352  41.1116386  76.9027747
  37.7269622  40.6823067  77.7848041  38.5156481  39.7133559  79.5368613
  39.3349369  40.2077638  79.5603450  38.7893288  38.7965527  79.5086180
  36.2807327  46.6852063  73.9868013  36.1461795  45.9252464  73.4206011
  35.8639389  47.4092963  73.5196802  39.4376453  47.5821380  74.1986456
  39.3208837  48.5266812  74.0965146  38.6168899  47.2794941  74.5872255
  33.7691395  34.0471693  80.2360810  34.4150258  33.5370647  80.7248035
  33.5608546  34.7840375  80.8104235  46.2944787  41.1152541  85.7352951
  47.1635947  41.2893193  85.3739585  45.8151538  41.9346958  85.6128680
  40.4630967  48.2349642  77.4142384  41.3658214  48.2673252  77.7308879
  40.2368337  47.3050093  77.4288720  42.2184569  46.9880628  74.0752463
  41.2680200  46.9882490  73.9616835  42.5217055  46.2413363  73.5588497
  38.1088886  31.1939310  84.3335824  38.9720347  30.8376115  84.5439149
  37.5354296  30.8553205  85.0211229  51.9654013  56.7140558  79.9825139
  51.6743879  57.6186189  79.8671806  52.6010997  56.7557086  80.6969209
  51.9064678  63.1646294  69.9445901  51.8288708  64.1154119  70.0234381
  51.3026322  62.8192167  70.6020827  51.3889644  50.2999261  82.9640545
  50.7588304  50.9815542  83.1975942  51.2825732  50.1882343  82.0193683
  44.9672319  50.2201548  76.3221460  45.2180358  51.1048557  76.5879036
  45.5031868  50.0406149  75.5496552  54.1803047  58.5228447  68.6651441
  54.0448722  59.3679983  69.0936288  54.7212859  58.7247725  67.9017374
  50.6670387  44.6020027  85.3265796  50.2737332  44.0486225  86.0013440
  51.4836527  44.9130605  85.7172313  48.7279686  51.2034273  81.1964282
  48.6133201  50.3019531  81.4971381  47.8724203  51.4497970  80.8449099
  50.5658644  60.6747815  77.3212461  51.1166070  60.5464879  76.5489455
  49.7270120  60.9742704  76.9707354  58.7271568  59.4360827  71.4075453
  59.0194543  59.9965884  70.6887819  59.2370189  59.7289388  72.1628612
  53.6905194  60.2141178  72.4968906  53.6481372  60.4402024  71.5677438
  54.6067893  59.9804552  72.6454707  49.5451508  65.9131688  74.0894103
  49.7848106  66.5450212  74.7673121  48.7020704  65.5619728  74.3759462
  46.9842085  48.2823647  77.2802439  46.9000274  47.6749316  76.5452849
  46.1624792  48.7732665  77.2811935  54.0579370  61.7210811  76.4935607
  53.9849541  62.5265782  77.0054911  53.6156763  61.9202776  75.6683628
  53.8469149  60.9582581  70.0038428  53.0636671  61.5004261  70.0976653
  54.5461894  61.4756560  70.4032670  51.5689967  59.3692088  79.4699336
  52.2699426  60.0028571  79.6228731  51.0985082  59.7106820  78.7094976
  56.3298426  61.9596389  71.3980057  56.5120821  61.1418045  71.8607809
  57.1531412  62.1764081  70.9604947  56.6640592  60.8864574  68.6595105
  57.1928358  60.3757028  68.0465268  56.9268812  60.5707104  69.5240638
  54.1601608  63.9723434  78.0175540  54.7119917  64.1355056  78.7824625
  54.5007802  64.5627872  77.3455565  48.6118374  48.3921716  82.2670459
  49.2390413  48.0098794  82.8807983  47.7546293  48.1735918  82.6326151
  56.3651337  59.5167146  72.8323124  56.2176300  58.5883853  73.0130694
  57.1904831  59.5387237  72.3480199  59.9685459  60.3395705  73.9187997
  60.8932007  60.1338566  73.7812448  59.8000763  60.0912106  74.8277338
  59.7580775  60.8581372  69.2750088  59.9317653  60.2927795  68.5223941
  60.2509667  61.6582267  69.0929578  45.5757735  52.8696041  77.3413647
  45.0311203  53.6455849  77.4733922  46.4537085  53.2166846  77.1832769
  46.3623757  51.9965937  80.2343804  45.6205493  52.1448573  80.8208435
  46.0416501  52.2574203  79.3710553  54.3288032  63.6919825  72.2629571
  53.8893022  63.1996204  72.9562427  55.0796149  63.1492793  72.0221646
  51.8486431  47.7139622  83.9284378  51.8974587  48.5901745  83.5462148
  52.3908946  47.1717015  83.3556022  55.1056307  55.6688447  84.0838790
  56.0259317  55.8467046  84.2778836  55.0705891  54.7244492  83.9318489
  52.9746245  49.1522687  86.1164320  52.8742972  50.1017044  86.0476411
  52.7567787  48.8240926  85.2440390  52.8377515  52.5819826  84.9329381
  52.3544597  53.3820186  85.1393271  52.9238454  52.5927771  83.9796825
  49.3550235  55.0425477  79.5368613  50.1743124  55.5369556  79.5603450
  49.6287043  54.1257445  79.5086180  50.2770208  62.9113297  74.1986456
  50.1602592  63.8558730  74.0965146  49.4562654  62.6086859  74.5872255
  44.6085149  49.3763611  80.2360810  45.2544013  48.8662565  80.7248035
  44.4002300  50.1132293  80.8104235  51.3024722  63.5641559  77.4142384
  52.2051968  63.5965170  77.7308879  51.0762092  62.6342010  77.4288720
  53.0578324  62.3172546  74.0752463  52.1073955  62.3174408  73.9616835
  53.3610810  61.5705280  73.5588497  48.9482640  46.5231228  84.3335824
  49.8114102  46.1668033  84.5439149  48.3748051  46.1845123  85.0211229
  66.0840506  69.2595364  81.0345955  66.0729147  68.8648162  80.1626459
  66.2461146  68.5261437  81.6279727  62.8047768  72.0432476  79.9825139
  62.5137634  72.9478107  79.8671806  63.4404752  72.0849004  80.6969209
  67.7637653  71.7293891  76.9774933  67.4638376  72.6318930  76.8690740
  67.4188712  71.4626075  77.8296086  65.2375662  65.6666077  82.6007268
  64.4608996  66.2259997  82.5910132  65.8766225  66.1522860  83.1222138
  63.4922035  68.4751531  82.1625235  64.2336719  69.0136575  81.8860058
  62.7859020  69.1017819  82.3196787  68.9677374  70.6180671  80.7597396
  69.3760730  70.1763082  80.0152029  68.2454636  70.0433299  81.0131589
  68.4707890  63.2157646  79.7912127  68.2268821  63.9699707  79.2546402
  68.7467820  63.5942994  80.6259374  70.4246352  69.7596259  78.4689392
  70.6363248  70.4028018  77.7923773  70.3776101  68.9258575  78.0011322
  62.2283398  65.6291179  82.9640545  61.5982059  66.3107460  83.1975942
  62.1219486  65.5174260  82.0193683  57.5228371  65.2962975  73.8906469
  56.7327425  65.5520503  73.4146580  58.0139618  66.1111313  73.9958509
  71.5392180  72.6368214  76.6411750  72.3609624  72.2348401  76.3594431
  71.5354583  72.5336448  77.5927866  65.3048784  72.1852257  78.7972460
  65.3693216  72.6472665  79.6330632  64.5959708  71.5549622  78.9254770
  64.4232102  61.3469824  82.9186052  65.1641815  61.9476977  82.8390515
  64.6550025  60.6047461  82.3604095  66.6465278  74.4743931  82.7951783
  66.2029132  73.6880310  82.4772687  67.3082491  74.6623082  82.1295673
  61.4052399  76.0039733  77.3212461  61.9559824  75.8756796  76.5489455
  60.5663875  76.3034622  76.9707354  68.7446516  74.7546731  80.8233184
  68.7264991  75.5755612  80.3313453  69.6666436  74.6300806  81.0483325
  65.2019570  72.2690861  81.6656692  65.7347907  71.5079149  81.4356000
  64.6733651  71.9764512  82.4080847  65.9186659  62.2109239  70.7608008
  65.0628255  61.8216089  70.5813646  66.3313610  62.2901199  69.9007793
  61.2991010  62.0596519  71.5382116  61.8734762  61.8371701  70.8055309
  61.8861993  62.1285214  72.2910717  67.9764582  66.0117163  79.3949536
  68.3313970  66.2388636  80.2544001  68.6236713  66.3435540  78.7726791
  67.4659593  74.8014220  76.6443237  67.5196616  75.3705156  77.4120953
  66.5974375  74.9716105  76.2797274  58.8733061  63.0894019  70.9568863
  59.1339879  64.0039352  70.8478024  59.6950234  62.6218462  71.1065476
  69.6562357  71.3942569  83.2183902  69.5047863  71.1653121  82.3013986
  69.6467036  72.3513171  83.2315247  71.3654563  74.4261692  81.2960384
  71.3067110  73.7420912  80.6290967  71.7674082  75.1680682  80.8441010
  60.3845262  81.2423606  74.0894103  60.6241860  81.8742130  74.7673121
  59.5414459  80.8911646  74.3759462  71.3671971  72.3901276  79.5274364
  70.4798749  72.0527198  79.6500762  71.9370522  71.6584307  79.7643129
  53.0201118  68.7225368  72.8517415  53.7072158  68.4087098  72.2638430
  52.8649246  69.6266732  72.5784666  64.8973124  77.0502728  76.4935607
  64.8243296  77.8557700  77.0054911  64.4550517  77.2494694  75.6683628
  67.3571808  76.9489562  78.6493765  68.0699780  77.5837027  78.5769667
  66.8661836  77.0453428  77.8333767  62.4083721  74.6984006  79.4699336
  63.1093181  75.3320489  79.6228731  61.9378836  75.0398737  78.7094976
  67.1692181  77.2888306  71.3980057  67.3514575  76.4709962  71.8607809
  67.9925167  77.5055999  70.9604947  66.2572580  67.9948424  83.7817924
  65.5813217  67.8942554  84.4520299  67.0800214  67.8387638  84.2453921
  52.5969094  66.8025961  75.1234882  52.6353193  66.2689552  75.9172000
  52.0909387  66.2761167  74.5045859  64.9995363  79.3015352  78.0175540
  65.5513671  79.4646973  78.7824625  65.3401556  79.8919790  77.3455565
  69.8506237  74.1276609  83.8724194  70.3946141  74.7406567  83.3779149
  69.2693082  74.6856188  84.3891207  68.1363750  77.2497327  75.0039222
  68.0114890  76.4487067  74.4950167  68.7942841  77.7443521  74.5153192
  70.1998659  75.0506347  76.6318772  69.2528994  74.9311698  76.5597099
  70.5481432  74.1628845  76.7145033  70.8079214  75.6687622  73.9187997
  71.7325761  75.4630484  73.7812448  70.6394517  75.4204023  74.8277338
  67.2006606  62.6996901  67.8255241  67.4170221  63.5821539  67.5244070
  66.7200673  62.3083115  67.0960883  63.8002211  62.6485162  74.4506876
  63.7863779  61.7526256  74.1139174  64.5174639  62.6555826  75.0845162
  65.1461174  76.8673833  80.0324194  65.4548301  76.6222980  80.9046894
  65.9436656  77.0720472  79.5443064  65.1681786  79.0211743  72.2629571
  64.7286777  78.5288122  72.9562427  65.9189903  78.4784711  72.0221646
  57.6474125  75.2123284  72.2654199  58.4732145  74.9127056  71.8852842
  57.2968177  74.4430906  72.7143987  62.6880186  63.0431540  83.9284378
  62.7368341  63.9193663  83.5462148  63.2302700  62.5008933  83.3556022
  73.1735032  73.5872663  83.2085515  72.3830575  73.5696802  82.6690015
  72.9368386  74.1260957  83.9634552  73.2932907  70.4365130  80.5218244
  73.3430912  70.2715137  81.4633767  73.1846830  69.5692389  80.1316125
  70.5836669  66.4196058  81.8377551  71.4846532  66.2802523  81.5461548
  70.6584644  66.5850513  82.7775728  74.7951104  72.8562071  80.7660265
  74.5035912  73.2192052  81.6023726  74.1823235  72.1429079  80.5873598
  73.0438292  67.9794686  79.2340323  73.5192413  68.1722332  78.4259175
  72.1203857  68.0353872  78.9883707  74.2228039  68.0766566  76.5810929
  74.1904359  67.1382566  76.7670613  74.8328662  68.1550602  75.8476754
  66.0611369  66.9462619  62.6238133  67.0070474  66.8168827  62.6926551
  65.6825614  66.2077280  63.1007561  65.9450062  70.9980365  84.0838790
  66.8653071  71.1758964  84.2778836  65.9099645  70.0536410  83.9318489
  55.1632227  66.1918958  73.0092064  54.8435011  65.3384267  72.7166438
  54.6165655  66.4067536  73.7650032  63.8140000  64.4814605  86.1164320
  63.7136727  65.4308962  86.0476411  63.5961542  64.1532844  85.2440390
  63.6771270  67.9111744  84.9329381  63.1938352  68.7112104  85.1393271
  63.7632209  67.9219689  83.9796825  57.9594836  77.3435898  73.9868013
  57.8249304  76.5836299  73.4206011  57.5426898  78.0676798  73.5196802
  61.1163962  78.2405215  74.1986456  60.9996346  79.1850648  74.0965146
  60.2956408  77.9378777  74.5872255  67.9732296  71.7736376  85.7352951
  68.8423456  71.9477028  85.3739585  67.4939047  72.5930793  85.6128680
  62.1418476  78.8933477  77.4142384  63.0445723  78.9257087  77.7308879
  61.9155846  77.9633928  77.4288720  63.8972078  77.6464464  74.0752463
  62.9467709  77.6466325  73.9616835  64.2004564  76.8997198  73.5588497
  59.7876395  61.8523146  84.3335824  60.6507856  61.4959950  84.5439149
  59.2141805  61.5137040  85.0211229  79.6324772  83.4825002  75.1398225
  80.2703182  83.3631749  74.4361565  79.5145615  84.4305846  75.1986177
  76.4414478  83.4352430  75.0759750  76.1032989  83.3193495  74.1880285
  77.3104246  83.0343595  75.0560756  76.9234261  84.5887282  81.0345955
  76.9122902  84.1940080  80.1626459  77.0854900  83.8553354  81.6279727
  69.8465726  86.7839098  73.9040861  70.6387017  86.4429923  73.4887161
  70.0862376  86.8934073  74.8243015  73.6441522  87.3724394  79.9825139
  73.3531388  88.2770024  79.8671806  74.2798506  87.4140921  80.6969209
  74.5697729  84.7501242  76.5726499  75.1661301  84.5257265  75.8583462
  74.6272700  84.0085988  77.1751947  82.1099888  74.8573263  77.5779020
  81.7783212  75.7268674  77.3540235  81.5145501  74.5409547  78.2573051
  78.6031407  87.0585809  76.9774933  78.3032130  87.9610848  76.8690740
  78.2582467  86.7917992  77.8296086  72.0543889  83.5099606  73.0111638
  71.1294385  83.3775820  73.2189329  72.3028302  84.2893825  73.5081580
  82.0028551  79.5768349  74.6572370  81.0945428  79.5083758  74.3631131
  81.9516147  80.0540294  75.4854196  69.4152700  83.1532880  73.8455427
  69.5445081  83.4067358  74.7594838  68.7350151  83.7460588  73.5260082
  73.5852187  93.8230129  69.9445901  73.5076217  94.7737955  70.0234381
  72.9813831  93.4776002  70.6020827  76.0769417  80.9957995  82.6007268
  75.3002751  81.5551915  82.5910132  76.7159980  81.4814778  83.1222138
  83.8690197  77.7784788  76.4350244  83.2264578  78.0717321  75.7890039
  83.3645126  77.6637708  77.2403441  74.3315789  83.8043448  82.1625235
  75.0730473  84.3428492  81.8860058  73.6252774  84.4309737  82.3196787
  79.8071129  85.9472589  80.7597396  80.2154485  85.5054999  80.0152029
  79.0848390  85.3725216  81.0131589  76.1602199  80.8845196  78.1330953
  77.0063394  81.3084609  78.2765602  76.1000836  80.2278820  78.8269516
  80.1299943  86.5073779  74.5149685  79.5008806  86.6719493  73.8125753
  79.7425605  86.9215389  75.2860649  79.3101644  78.5449564  79.7912127
  79.0662576  79.2991624  79.2546402  79.5861575  78.9234911  80.6259374
  81.2640107  85.0888176  78.4689392  81.4757002  85.7319936  77.7923773
  81.2169855  84.2550493  78.0011322  72.5751986  85.7919669  74.7179533
  73.1453343  86.2206937  74.0797018  73.1660098  85.5102254  75.4163719
  73.0677153  80.9583096  82.9640545  72.4375813  81.6399377  83.1975942
  72.9613241  80.8466178  82.0193683  68.3622125  80.6254892  73.8906469
  67.5721179  80.8812421  73.4146580  68.8533373  81.4403230  73.9958509
  82.3785935  87.9660132  76.6411750  83.2003378  87.5640319  76.3594431
  82.3748338  87.8628366  77.5927866  76.1442538  87.5144175  78.7972460
  76.2086971  87.9764582  79.6330632  75.4353462  86.8841540  78.9254770
  66.6459828  80.8785383  76.3221460  66.8967867  81.7632393  76.5879036
  67.1819377  80.6989984  75.5496552  90.4691928  84.3098880  72.9896721
  89.7155636  83.7406278  72.8340726  90.6039469  84.2761545  73.9367356
  72.3457896  75.2603862  85.3265796  71.9524841  74.7070061  86.0013440
  73.1624036  75.5714441  85.7172313  75.2625856  76.6761741  82.9186052
  76.0035570  77.2768895  82.8390515  75.4943779  75.9339379  82.3604095
  70.4067195  81.8618109  81.1964282  70.2920710  80.9603366  81.4971381
  69.5511712  82.1081805  80.8449099  77.4859032  89.8035849  82.7951783
  77.0422886  89.0172228  82.4772687  78.1476246  89.9914999  82.1295673
  72.2446153  91.3331651  77.3212461  72.7953579  91.2048714  76.5489455
  71.4057629  91.6326540  76.9707354  79.5840270  90.0838649  80.8233184
  79.5658746  90.9047530  80.3313453  80.5060190  89.9592724  81.0483325
  76.0413324  87.5982778  81.6656692  76.5741661  86.8371067  81.4356000
  75.5127406  87.3056430  82.4080847  67.2768870  85.0276375  70.0138936
  68.1144092  85.4373383  69.7972644  67.4547138  84.0875817  69.9839130
  82.3858883  84.9217791  74.2942551  81.7282558  85.6117053  74.3822679
  83.1899282  85.3114223  74.6376537  81.1964342  83.2762164  72.3446492
  81.7096224  83.9092156  72.8468202  81.8465566  82.6763360  71.9789852
  77.6745173  80.7511620  74.5904833  76.7567734  80.9726567  74.4326521
  78.0905316  80.8257930  73.7316540  80.4059077  90.0944662  71.4075453
  80.6982052  90.6549719  70.6887819  80.9157698  90.3873223  72.1628612
  67.2995041  82.3667090  70.6849670  67.1019441  81.7736451  69.9600736
  66.7441705  82.0619300  71.4025608  75.3692703  90.8725013  72.4968906
  75.3268881  91.0985860  71.5677438  76.2855402  90.6388388  72.6454707
  78.8158336  81.3409081  79.3949536  79.1707724  81.5680554  80.2544001
  79.4630468  81.6727458  78.7726791  72.7098200  78.4485612  76.1795877
  73.3497579  78.3074371  75.4818840  71.8775730  78.1620125  75.8034479
  84.5725453  86.5304044  75.1110136  85.0061960  86.4379333  75.9593190
  85.2857034  86.5061544  74.4730152  78.3053348  90.1306138  76.6443237
  78.3590370  90.6997074  77.4120953  77.4368129  90.3008023  76.2797274
  69.7126816  78.4185937  70.9568863  69.9733633  79.3331270  70.8478024
  70.5343988  77.9510379  71.1065476  71.1851741  79.8323694  78.1267688
  71.8574795  79.6241056  77.4780337  70.3581528  79.6345780  77.6872920
  85.4341003  86.5727744  77.6443021  85.6276893  87.4773555  77.8902296
  85.3341621  86.1135163  78.4781606  77.0877313  76.4585635  80.1433349
  76.4405228  77.1575585  80.0497825  77.8578329  76.8921779  80.5109597
  80.4956111  86.7234487  83.2183902  80.3441618  86.4945039  82.3013986
  80.4860791  87.6805089  83.2315247  77.2641448  84.2966400  78.2030169
  78.1933508  84.4477559  78.0299136  76.8432478  84.3850421  77.3478815
  76.0629779  88.3217064  75.9728706  75.9240865  87.9535849  76.8454644
  75.2744376  88.8364704  75.8012664  77.6134995  87.6998667  73.3617544
  77.2784827  87.6599437  74.2575194  77.1138940  87.0343383  72.8887954
  71.5879239  83.1066297  78.8870125  71.4499036  82.3746536  79.4881664
  72.4984162  83.0175197  78.6054313  74.2161539  82.8186256  78.3753805
  74.9261158  82.1779448  78.3340423  74.1730847  83.0699151  79.2979986
  82.2048318  89.7553610  81.2960384  82.1460864  89.0712830  80.6290967
  82.6067836  90.4972600  80.8441010  72.9290473  79.8051474  80.1949444
  72.3927830  79.3542213  80.8471041  72.3407182  79.9397383  79.4519909
  71.2239017  96.5715523  74.0894103  71.4635615  97.2034048  74.7673121
  70.3808213  96.2203564  74.3759462  82.2065725  87.7193194  79.5274364
  81.3192504  87.3819115  79.6500762  82.7764276  86.9876225  79.7643129
  63.8594872  84.0517285  72.8517415  64.5465912  83.7379015  72.2638430
  63.7043001  84.9558650  72.5784666  68.6629594  78.9407482  77.2802439
  68.5787783  78.3333151  76.5452849  67.8412301  79.4316500  77.2811935
  75.7366879  92.3794646  76.4935607  75.6637050  93.1849617  77.0054911
  75.2944272  92.5786612  75.6683628  78.1965562  92.2781480  78.6493765
  78.9093534  92.9128945  78.5769667  77.7055591  92.3745346  77.8333767
  73.2477476  90.0275923  79.4699336  73.9486935  90.6612406  79.6228731
  72.7772591  90.3690655  78.7094976  81.0478762  82.5820531  77.2951887
  80.3950212  82.8296438  76.6404339  81.4259141  81.7684669  76.9614364
  77.0966335  83.3240342  83.7817924  76.4206972  83.2234471  84.4520299
  77.9193968  83.1679556  84.2453921  68.8445194  89.5612278  76.4030439
  69.4298630  88.8155966  76.5358343  68.6470032  89.8716235  77.2867103
  71.6983849  92.5963526  71.4192881  71.0294224  93.0809653  70.9356921
  71.5596719  92.8432746  72.3336260  63.4362848  82.1317879  75.1234882
  63.4746948  81.5981469  75.9172000  62.9303141  81.6053084  74.5045859
  75.8389117  94.6307269  78.0175540  76.3907425  94.7938891  78.7824625
  76.1795311  95.2211707  77.3455565  70.8153611  76.9782419  78.6197424
  70.8794937  77.8397250  78.2074822  70.7520731  76.3656421  77.8869783
  70.2905883  79.0505552  82.2670459  70.9177922  78.6682629  82.8807983
  69.4333802  78.8319754  82.6326151  80.6899992  89.4568527  83.8724194
  81.2339896  90.0698485  83.3779149  80.1086837  90.0148105  84.3891207
  78.9757505  92.5789245  75.0039222  78.8508644  91.7778985  74.4950167
  79.6336596  93.0735438  74.5153192  70.5965673  78.9337977  74.1816362
  69.8752259  79.5473945  74.0423835  71.3858929  79.4695742  74.1033008
  81.0392413  90.3798265  76.6318772  80.0922749  90.2603616  76.5597099
  81.3875186  89.4920763  76.7145033  73.3991986  76.2692404  80.4557014
  73.9226388  76.5154700  81.2183323  73.1804320  77.1012439  80.0360151
  78.0438846  90.1750981  72.8323124  77.8963809  89.2467689  73.0130694
  78.8692340  90.1971072  72.3480199  81.6472968  90.9979540  73.9187997
  82.5719516  90.7922401  73.7812448  81.4788272  90.7495941  74.8277338
  74.6044532  77.2106099  78.1406684  74.2641352  76.4113912  78.5427364
  73.8983538  77.5107810  77.5683518  72.7799582  80.9874532  74.4025986
  72.6344163  81.3014835  75.2950268  72.3024786  81.6059432  73.8496885
  74.6395965  77.9777080  74.4506876  74.6257534  77.0818173  74.1139174
  75.3568393  77.9847744  75.0845162  76.4922096  78.4114420  76.4960003
  76.2339874  79.3331491  76.4944333  75.9607136  78.0144855  77.1860467
  67.2545244  83.5279876  77.3413647  66.7098712  84.3039684  77.4733922
  68.1324594  83.8750681  77.1832769  68.0411266  82.6549773  80.2343804
  67.2993002  82.8032408  80.8208435  67.7204010  82.9158038  79.3710553
  75.9854929  92.1965751  80.0324194  76.2942055  91.9514898  80.9046894
  76.7830411  92.4012389  79.5443064  76.0075541  94.3503661  72.2629571
  75.5680531  93.8580039  72.9562427  76.7583658  93.8076628  72.0221646
  68.4867880  90.5415201  72.2654199  69.3125900  90.2418973  71.8852842
  68.1361932  89.7722824  72.7143987  73.4549413  89.8941670  74.3351872
  72.8329422  89.2312375  74.0354100  74.1254280  89.9202802  73.6525520
  66.6876485  88.4601528  73.2243132  65.8508393  88.0323702  73.0427134
  66.6600130  88.6533971  74.1613924  73.5273940  78.3723458  83.9284378
  73.5762096  79.2485581  83.5462148  74.0696455  77.8300851  83.3556022
  84.0128786  88.9164581  83.2085515  83.2224330  88.8988720  82.6690015
  83.7762141  89.4552875  83.9634552  84.1326661  85.7657047  80.5218244
  84.1824666  85.6007055  81.4633767  84.0240585  84.8984306  80.1316125
  81.4230424  81.7487975  81.8377551  82.3240286  81.6094440  81.5461548
  81.4978398  81.9142430  82.7775728  75.7573229  79.1254830  80.6830737
  74.8876538  79.4188396  80.4113326  75.9932709  79.7095275  81.4038001
  85.6344858  88.1853989  80.7660265  85.3429666  88.5483969  81.6023726
  85.0216989  87.4720997  80.5873598  86.8340540  85.7506869  73.2862836
  87.6687432  86.1896673  73.4500396  86.9699669  85.2745522  72.4671081
  83.8832046  83.3086603  79.2340323  84.3586168  83.5014250  78.4259175
  82.9597612  83.3645789  78.9883707  82.5833715  80.1852364  77.4668629
  83.5351138  80.2850461  77.4880853  82.4137166  79.3930632  77.9766713
  80.6048095  77.2707947  77.6528030  80.0098027  77.5512959  76.9574519
  80.3197791  77.7601848  78.4244771  85.0621793  83.4058483  76.5810929
  85.0298113  82.4674484  76.7670613  85.6722417  83.4842520  75.8476754
  85.2116282  80.1969527  76.6269212  84.6955330  79.4127983  76.4399141
  86.0956230  79.8688243  76.7915731  90.8798343  84.4674490  75.7216966
  91.6101731  84.2059778  76.2824669  90.2705288  83.7303212  75.7619034
  88.9613640  82.6082353  76.3191417  88.2346804  82.4738318  75.7107908
  88.5460927  82.9159181  77.1248135  76.7843816  86.3272282  84.0838790
  77.7046826  86.5050881  84.2778836  76.7493399  85.3828328  83.9318489
  66.0025981  81.5210876  73.0092064  65.6828766  80.6676184  72.7166438
  65.4559410  81.7359454  73.7650032  69.7805889  84.2373317  76.7261571
  69.9991899  85.1690425  76.7449605  70.1931663  83.8781291  77.5116375
  74.6533754  79.8106523  86.1164320  74.5530481  80.7600880  86.0476411
  74.4355296  79.4824762  85.2440390  65.8714241  85.1413788  74.9785186
  65.1777713  84.7267740  74.4655140  66.6187232  85.1834324  74.3818605
  74.5165024  83.2403662  84.9329381  74.0332106  84.0404022  85.1393271
  74.6025963  83.2511606  83.9796825  67.7850984  85.0732041  72.8551201
  67.7621672  85.1719729  71.9033084  68.0951620  85.9197192  73.1768367
  70.4438362  87.1308196  76.9697815  71.3981615  87.0992139  76.9027747
  70.2450885  86.6698820  77.7848041  71.0337744  85.7009312  79.5368613
  71.8530633  86.1953391  79.5603450  71.3074552  84.7841281  79.5086180
  68.7988591  92.6727816  73.9868013  68.6643059  91.9128217  73.4206011
  68.3820653  93.3968716  73.5196802  71.9557717  93.5697133  74.1986456
  71.8390101  94.5142565  74.0965146  71.1350163  93.2670694  74.5872255
  66.2872658  80.0347446  80.2360810  66.9331522  79.5246400  80.7248035
  66.0789809  80.7716128  80.8104235  78.8126050  87.1028294  85.7352951
  79.6817210  87.2768946  85.3739585  78.3332802  87.9222711  85.6128680
  72.9812231  94.2225395  77.4142384  73.8839477  94.2549005  77.7308879
  72.7549601  93.2925846  77.4288720  74.7365833  92.9756381  74.0752463
  73.7861464  92.9758243  73.9616835  75.0398319  92.2289116  73.5588497
  70.6270149  77.1815063  84.3335824  71.4901611  76.8251868  84.5439149
  70.0535560  76.8428958  85.0211229  90.4718526  98.8116920  75.1398225
  91.1096936  98.6923667  74.4361565  90.3539369  99.7597764  75.1986177
  87.2808232  98.7644348  75.0759750  86.9426744  98.6485412  74.1880285
  88.1498001  98.3635513  75.0560756  83.1395048 100.6179824  71.0656641
  82.5759913 100.5269761  70.2972929  83.0247443  99.7979729  71.5459133
  87.7628015  99.9179199  81.0345955  87.7516656  99.5231998  80.1626459
  87.9248655  99.1845272  81.6279727  80.6859480 102.1131016  73.9040861
  81.4780772 101.7721840  73.4887161  80.9256130 102.2225991  74.8243015
  88.7194607 104.2850792  66.3771106  88.0682587 104.8704872  65.9905120
  89.5138970 104.8156987  66.4366143  82.6450234 101.3739929  66.7758240
  83.4181110 100.8268916  66.6371116  82.9975633 102.2384178  66.9872702
  84.4835277 102.7016311  79.9825139  84.1925143 103.6061942  79.8671806
  85.1192261 102.7432839  80.6969209  85.4091483 100.0793160  76.5726499
  86.0055056  99.8549182  75.8583462  85.4666455  99.3377905  77.1751947
  90.0259795  96.5368374  72.2151433  90.8122884  96.1187797  71.8641850
  90.2898499  97.4414466  72.3833082  90.1969872 101.9741224  66.9140090
  89.5615705 102.0475850  67.6260995  89.8667278 102.5634823  66.2359169
  95.4268222  96.4743607  73.1184412  96.1593394  95.9042824  73.3522241
  94.6707577  96.0865207  73.5590917  84.7012801  99.4360701  66.6101065
  84.5849059  98.7605604  67.2782149  84.8115060  98.9493075  65.7933218
  87.0444341  98.8970848  70.3147754  86.6802549  98.3701469  71.0260676
  87.9011457  98.5069317  70.1414240  92.9493642  90.1865181  77.5779020
  92.6176967  91.0560592  77.3540235  92.3539255  89.8701465  78.2573051
  89.4425162 102.3877727  76.9774933  89.1425885 103.2902766  76.8690740
  89.0976221 102.1209910  77.8296086  82.8937643  98.8391524  73.0111638
  81.9688140  98.7067738  73.2189329  83.1422056  99.6185743  73.5081580
  92.8422305  94.9060267  74.6572370  91.9339183  94.8375675  74.3631131
  92.7909901  95.3832212  75.4854196  86.6639049  96.3818405  66.2955770
  86.5438675  96.8275456  67.1341250  85.9691638  96.7303723  65.7369308
  80.2546454  98.4824797  73.8455427  80.3838835  98.7359276  74.7594838
  79.5743905  99.0752505  73.5260082  84.4245941 109.1522047  69.9445901
  84.3469971 110.1029872  70.0234381  83.8207585 108.8067920  70.6020827
  86.9163171  96.3249913  82.6007268  86.1396505  96.8843833  82.5910132
  87.5553734  96.8106696  83.1222138  94.7083952  93.1076705  76.4350244
  94.0658332  93.4009239  75.7890039  94.2038880  92.9929626  77.2403441
  92.3624115  96.8539879  67.1236104  93.2741972  97.0867265  66.9483801
  91.8533763  97.4376923  66.5611182  85.1709544  99.1335366  82.1625235
  85.9124228  99.6720410  81.8860058  84.4646529  99.7601655  82.3196787
  90.6464883 101.2764506  80.7597396  91.0548239 100.8346917  80.0152029
  89.9242145 100.7017134  81.0131589  86.9995953  96.2137113  78.1330953
  87.8457148  96.6376527  78.2765602  86.9394591  95.5570737  78.8269516
  90.9693698 101.8365697  74.5149685  90.3402560 102.0011411  73.8125753
  90.5819360 102.2507307  75.2860649  94.8482930 102.7720135  71.8694049
  94.1633968 103.1519036  71.3191082  94.9326779 103.3815462  72.6025997
  90.1495399  93.8741482  79.7912127  89.9056330  94.6283542  79.2546402
  90.4255329  94.2526829  80.6259374  92.1033861 100.4180094  78.4689392
  92.3150757 101.0611854  77.7923773  92.0563610  99.5842410  78.0011322
  89.7060090  93.0297915  75.3725965  88.8444569  93.3279168  75.6642702
  89.7322525  93.2468313  74.4406997  86.5221660 101.5740105  71.7799770
  86.9860005 101.8527808  70.9904393  86.2578458 100.6723550  71.5972861
  83.4145741 101.1211587  74.7179533  83.9847098 101.5498855  74.0797018
  84.0053853 100.8394171  75.4163719  85.4590546  97.6963257  68.5889335
  86.1614589  98.1484301  69.0563262  85.1271174  97.0547076  69.2169228
  83.9070907  96.2875014  82.9640545  83.2769568  96.9691295  83.1975942
  83.8006995  96.1758096  82.0193683  79.2015880  95.9546810  73.8906469
  78.4114934  96.2104339  73.4146580  79.6927127  96.7695148  73.9958509
  93.2179689 103.2952049  76.6411750  94.0397133 102.8932237  76.3594431
  93.2142092 103.1920283  77.5927866  86.9836293 102.8436093  78.7972460
  87.0480725 103.3056500  79.6330632  86.2747217 102.2133458  78.9254770
  77.4853583  96.2077301  76.3221460  77.7361621  97.0924311  76.5879036
  78.0213131  96.0281902  75.5496552 101.3085682  99.6390798  72.9896721
 100.5549391  99.0698196  72.8340726 101.4433224  99.6053462  73.9367356
  86.6984310 104.5104200  68.6651441  86.5629985 105.3555736  69.0936288
  87.2394123 104.7123478  67.9017374  83.1851650  90.5895780  85.3265796
  82.7918596  90.0361979  86.0013440  84.0017790  90.9006358  85.7172313
  80.1513708 102.0279638  69.2379366  80.6638228 102.8222888  69.3884930
  80.8036421 101.3305929  69.1712967  81.9608592 105.1445394  71.3202119
  82.1375221 106.0663359  71.1323103  82.7565426 104.8303814  71.7496499
  86.1019611  92.0053659  82.9186052  86.8429324  92.6060812  82.8390515
  86.3337534  91.2631297  82.3604095  81.2460949  97.1910026  81.1964282
  81.1314464  96.2895284  81.4971381  80.3905467  97.4373723  80.8449099
  88.3252787 105.1327767  82.7951783  87.8816641 104.3464145  82.4772687
  88.9870000 105.3206917  82.1295673  83.0839908 106.6623568  77.3212461
  83.6347333 106.5340632  76.5489455  82.2451384 106.9618457  76.9707354
  90.4234025 105.4130567  80.8233184  90.4052500 106.2339448  80.3313453
  91.3453945 105.2884642  81.0483325  86.8807079 102.9274696  81.6656692
  87.4135416 102.1662984  81.4356000  86.3521160 102.6348348  82.4080847
  90.0476774  88.0334762  77.1950334  89.7041043  88.9236404  77.1189445
  90.4155737  87.8436420  76.3319919  78.1162625 100.3568292  70.0138936
  78.9537847 100.7665301  69.7972644  78.2940892  99.4167735  69.9839130
  90.0127057  98.0243373  65.7022769  89.4973680  98.7947978  65.9411157
  89.7404365  97.3508509  66.3255831  87.5974168  92.8693074  70.7608008
  86.7415764  92.4799924  70.5813646  88.0101119  92.9485035  69.9007793
  89.1273314  90.4039417  75.1599567  88.6238110  90.3669552  74.3467373
  89.4203921  91.3132160  75.2196224  85.3716200  90.4878147  74.1665749
  86.2369197  90.2920956  73.8071638  85.4393709  90.2588499  75.0935106
  94.9861331 100.7775728  67.6375943  94.2090774 100.4386887  67.1931105
  95.6652812 100.7828351  66.9630908  89.8013360  95.8970465  67.5282550
  89.4963495  96.2116614  68.3792694  90.7543802  95.9751885  67.5709883
  88.2459792 102.0560689  69.1775504  87.7181153 101.3213448  68.8648742
  87.7447294 102.8335365  68.9315473  93.2252638 100.2509709  74.2942551
  92.5676312 100.9408970  74.3822679  94.0293037 100.6406141  74.6376537
  82.9778519  92.7180355  71.5382116  83.5522271  92.4955536  70.8055309
  83.5649502  92.7869049  72.2910717  92.0358096  98.6054082  72.3446492
  92.5489978  99.2384074  72.8468202  92.6859320  98.0055277  71.9789852
  89.2980471 108.5838406  65.1007163  88.6242169 108.8870103  65.7092121
  89.6846293 109.3867486  64.7512621  88.5138927  96.0803537  74.5904833
  87.5961489  96.3018484  74.4326521  88.9299071  96.1549848  73.7316540
  89.2973975  97.4794953  69.7207513  90.0445794  97.9916350  69.4114635
  89.5665565  97.1579006  70.5811907  87.5700625  99.9753494  66.7034467
  86.6611845  99.6912526  66.8006937  87.5995709 100.3952572  65.8437774
  92.8019893 103.5860083  70.4725635  92.3482220 102.7450993  70.5290825
  92.1713859 104.2221482  70.8100415  91.7452812  94.5152069  71.7026302
  91.0075569  94.0029455  72.0336545  91.9979586  94.0752451  70.8909579
  91.2452832 105.4236580  71.4075453  91.5375806 105.9841637  70.6887819
  91.7551453 105.7165141  72.1628612  91.8464440  87.2928321  72.2968072
  92.1523316  86.4325685  72.0093987  92.5717044  87.8845941  72.0967066
  78.1388796  97.6959008  70.6849670  77.9413195  97.1028368  69.9600736
  77.5835460  97.3911218  71.4025608  86.1185519  97.5882114  72.8044263
  86.1734129  96.6355951  72.7286739  85.3076721  97.7441553  73.2885561
  87.2676713 101.5162237  64.0422546  86.8296143 100.7998096  63.5828183
  88.0087154 101.7438352  63.4807637  84.0577879  96.2059174  70.5634642
  83.2445745  96.5053345  70.9699834  84.5536873  95.8114863  71.2809124
  86.2086457 106.2016931  72.4968906  86.1662636 106.4277777  71.5677438
  87.1249156 105.9680306  72.6454707  89.6552091  96.6700998  79.3949536
  90.0101479  96.8972472  80.2544001  90.3024222  97.0019375  78.7726791
  95.3849828  99.7919434  70.0998865  95.2467726  99.9821030  69.1720054
  95.0286047 100.5538817  70.5566916  83.5491954  93.7777530  76.1795877
  84.1891333  93.6366289  75.4818840  82.7169485  93.4912043  75.8034479
  95.4119207 101.8595961  75.1110136  95.8455714 101.7671250  75.9593190
  96.1250788 101.8353462  74.4730152  84.3252258 103.0779960  72.2930869
  85.1192856 102.5830280  72.0913444  83.6143950 102.5497823  71.9298575
  89.1447102 105.4598055  76.6443237  89.1984125 106.0288992  77.4120953
  88.2761884 105.6299941  76.2797274  82.0245496  95.1615612  78.1267688
  82.6968549  94.9532974  77.4780337  81.1975282  94.9637698  77.6872920
  96.2734757 101.9019662  77.6443021  96.4670647 102.8065473  77.8902296
  96.1735375 101.4427081  78.4781606  87.9271068  91.7877553  80.1433349
  87.2798983  92.4867502  80.0497825  88.6972083  92.2213697  80.5109597
  91.3349866 102.0526405  83.2183902  91.1835372 101.8236956  82.3013986
  91.3254545 103.0097006  83.2315247  88.1035202  99.6258318  78.2030169
  89.0327262  99.7769477  78.0299136  87.6826232  99.7142338  77.3478815
  86.9023534 103.6508982  75.9728706  86.7634620 103.2827766  76.8454644
  86.1138130 104.1656621  75.8012664  87.4971686 108.7518078  67.3154243
  87.6723442 108.2806122  68.1299865  86.8104474 109.3783845  67.5435503
  88.4528749 103.0290585  73.3617544  88.1178582 102.9891355  74.2575194
  87.9532695 102.3635301  72.8887954  82.4272993  98.4358215  78.8870125
  82.2892791  97.7038453  79.4881664  83.3377916  98.3467115  78.6054313
  91.3887941 100.3746619  63.6354604  90.7717111  99.6493447  63.5387656
  90.9204429 101.1355979  63.2921678  85.0555294  98.1478174  78.3753805
  85.7654912  97.5071366  78.3340423  85.0124602  98.3991069  79.2979986
  93.0442072 105.0845527  81.2960384  92.9854619 104.4004747  80.6290967
  93.4461591 105.8264517  80.8441010  83.7684228  95.1343392  80.1949444
  83.2321585  94.6834130  80.8471041  83.1800936  95.2689301  79.4519909
  82.0632771 111.9007441  74.0894103  82.3029369 112.5325965  74.7673121
  81.2201968 111.5495481  74.3759462  93.0459480 103.0485111  79.5274364
  92.1586258 102.7111033  79.6500762  93.6158031 102.3168142  79.7643129
  74.6988627  99.3809203  72.8517415  75.3859667  99.0670933  72.2638430
  74.5436755 100.2850568  72.5784666  79.5023349  94.2699400  77.2802439
  79.4181538  93.6625069  76.5452849  78.6806055  94.7608418  77.2811935
  86.5760633 107.7086564  76.4935607  86.5030805 108.5141535  77.0054911
  86.1338026 107.9078529  75.6683628  86.3650413 106.9458334  70.0038428
  85.5817935 107.4880014  70.0976653  87.0643158 107.4632313  70.4032670
  89.6747063  92.7552963  72.6472634  90.1715762  92.0022925  72.3273704
  88.9034044  92.7917280  72.0815843  97.5276820  98.4593329  74.2890925
  97.5166696  99.3418044  73.9184858  96.6594200  98.1064879  74.0945462
  89.0359317 107.6073398  78.6493765  89.7487289 108.2420862  78.5769667
  88.5449345 107.7037264  77.8333767  90.7576843 101.5124650  70.2211057
  89.8233122 101.6326113  70.0515761  90.9353512 100.6097117  69.9571067
  86.2582032  94.8970346  72.3744318  85.8879819  94.3441386  73.0625224
  86.7541124  94.2928480  71.8219318  94.1449395  97.3541970  70.7561091
  94.6109847  98.1869961  70.6821394  94.5956895  96.8886951  71.4606350
  84.0871230 105.3567841  79.4699336  84.7880690 105.9904324  79.6228731
  83.6166345 105.6982573  78.7094976  92.2125626 103.6985791  67.7547243
  92.4885470 103.5842385  68.6641117  91.3430125 103.3003276  67.7159416
  92.1166058  89.7222557  74.7951993  91.2029137  89.9526783  74.9634200
  92.5459159  89.8061001  75.6466025  91.8872516  97.9112449  77.2951887
  91.2343966  98.1588356  76.6404339  92.2652896  97.0976587  76.9614364
  88.8479690 107.9472142  71.3980057  89.0302084 107.1293798  71.8607809
  89.6712676 108.1639834  70.9604947  89.1821855 106.8740327  68.6595105
  89.7109622 106.3632781  68.0465268  89.4450075 106.5582857  69.5240638
  87.9360089  98.6532260  83.7817924  87.2600726  98.5526389  84.4520299
  88.7587723  98.4971473  84.2453921  79.6838948 104.8904196  76.4030439
  80.2692385 104.1447884  76.5358343  79.4863787 105.2008153  77.2867103
  82.5377603 107.9255444  71.4192881  81.8687979 108.4101571  70.9356921
  82.3990473 108.1724664  72.3336260  74.2756603  97.4609796  75.1234882
  74.3140702  96.9273387  75.9172000  73.7696896  96.9345002  74.5045859
  86.6782872 109.9599187  78.0175540  87.2301180 110.1230809  78.7824625
  87.0189065 110.5503625  77.3455565  81.6547365  92.3074337  78.6197424
  81.7188692  93.1689168  78.2074822  81.5914485  91.6948339  77.8869783
  81.1299638  94.3797469  82.2670459  81.7571677  93.9974547  82.8807983
  80.2727557  94.1611671  82.6326151  91.5293746 104.7860445  83.8724194
  92.0733650 105.3990403  83.3779149  90.9480591 105.3440023  84.3891207
  89.8151259 107.9081163  75.0039222  89.6902399 107.1070902  74.4950167
  90.4730350 108.4027356  74.5153192  81.4359427  94.2629895  74.1816362
  80.7146013  94.8765863  74.0423835  82.2252683  94.7987660  74.1033008
  91.8786168 105.7090183  76.6318772  90.9316503 105.5895534  76.5597099
  92.2268941 104.8212681  76.7145033  84.2385741  91.5984322  80.4557014
  84.7620143  91.8446618  81.2183323  84.0198074  92.4304356  80.0360151
  88.8832601 105.5042899  72.8323124  88.7357563 104.5759606  73.0130694
  89.7086094 105.5262990  72.3480199  82.7494845  94.1560966  68.6903616
  83.0890918  94.6846887  67.9682225  83.1966966  94.4941372  69.4662183
  92.4866723 106.3271458  73.9187997  93.4113270 106.1214319  73.7812448
  92.3182026 106.0787859  74.8277338  85.4438286  92.5398017  78.1406684
  85.1035106  91.7405830  78.5427364  84.7377292  92.8399728  77.5683518
  86.0954758  89.6247329  76.5934007  86.9180827  89.1507807  76.4712898
  86.3392821  90.4037813  77.0932694  88.8794115  93.3580737  67.8255241
  89.0957730  94.2405374  67.5244070  88.3988182  92.9666950  67.0960883
  83.6193337  96.3166450  74.4025986  83.4737917  96.6306753  75.2950268
  83.1418540  96.9351350  73.8496885  85.4789719  93.3068998  74.4506876
  85.4651288  92.4110091  74.1139174  86.1962148  93.3139661  75.0845162
  87.3315850  93.7406338  76.4960003  87.0733628  94.6623409  76.4944333
  86.8000891  93.3436772  77.1860467  92.2762039 106.8457125  69.2750088
  92.4498916 106.2803548  68.5223941  92.7690930 107.6458020  69.0929578
  78.0938999  98.8571794  77.3413647  77.5492467  99.6331602  77.4733922
  78.9718349  99.2042599  77.1832769  84.8826615  92.1883378  69.7194446
  85.0042527  91.2600024  69.9185333  84.5928658  92.2022064  68.8072761
  87.7517806  89.8738288  72.8561166  87.7739503  89.9377622  71.9013145
  88.1685865  89.0342797  73.0501672  98.1301430  99.6093548  70.8940388
  98.5732576  98.8600873  70.4959511  97.2527940  99.6003684  70.5114120
  93.2637211 106.1623889  66.3746987  93.9588116 106.7830582  66.5934301
  93.6060362 105.3119241  66.6499365  78.8805021  97.9841690  80.2343804
  78.1386757  98.1324326  80.8208435  78.5597765  98.2449956  79.3710553
  95.1628635 103.6123595  67.9034317  95.6879959 103.9510868  67.1783637
  95.0750987 102.6770610  67.7197452  86.8248683 107.5257669  80.0324194
  87.1335810 107.2806815  80.9046894  87.6224165 107.7304307  79.5443064
  86.8469295 109.6795578  72.2629571  86.4074286 109.1871957  72.9562427
  87.5977412 109.1368546  72.0221646  79.3261634 105.8707119  72.2654199
  80.1519654 105.5710891  71.8852842  78.9755686 105.1014742  72.7143987
  84.2943167 105.2233587  74.3351872  83.6723177 104.5604292  74.0354100
  84.9648034 105.2494719  73.6525520  77.5270239 103.7893446  73.2243132
  76.6902148 103.3615620  73.0427134  77.4993885 103.9825889  74.1613924
  84.3667695  93.7015375  83.9284378  84.4155850  94.5777498  83.5462148
  84.9090209  93.1592768  83.3556022  94.8522541 104.2456499  83.2085515
  94.0618084 104.2280637  82.6690015  94.6155895 104.7844792  83.9634552
  94.9720416 101.0948965  80.5218244  95.0218421 100.9298972  81.4633767
  94.8634339 100.2276224  80.1316125  83.8556674 103.7737511  67.8110333
  84.0044795 104.4572975  67.1577006  84.6623118 103.7542601  68.3259789
  92.2624178  97.0779893  81.8377551  93.1634041  96.9386358  81.5461548
  92.3372153  97.2434348  82.7775728  86.5966983  94.4546748  80.6830737
  85.7270293  94.7480314  80.4113326  86.8326464  95.0387193  81.4038001
  96.4738613 103.5145907  80.7660265  96.1823421 103.8775887  81.6023726
  95.8610744 102.8012915  80.5873598  97.6734295 101.0798786  73.2862836
  98.5081186 101.5188590  73.4500396  97.8093424 100.6037440  72.4671081
  94.7225801  98.6378521  79.2340323  95.1979922  98.8306167  78.4259175
  93.7991366  98.6937707  78.9883707  81.6109307  99.8002688  68.8171402
  81.3655349  98.8965018  69.0151612  81.7805222  99.8019839  67.8750880
  89.3006017  90.6726365  78.1996157  89.8187961  91.4087392  77.8742646
  88.9461150  90.9790358  79.0342916  89.5518611  87.0926647  73.7197054
  89.8320365  86.4249836  74.3457481  90.3369218  87.2855743  73.2071718
  87.3552080 106.2685641  65.2822080  86.7826047 106.8875828  64.8292552
  87.9284874 106.8185003  65.8162002  93.4227470  95.5144281  77.4668629
  94.3744893  95.6142379  77.4880853  93.2530920  94.7222550  77.9766713
  91.4441849  92.5999864  77.6528030  90.8491781  92.8804877  76.9574519
  91.1591546  93.0893765  78.4244771  90.5749340 106.5522791  66.4130663
  91.5080013 106.4868353  66.6163538  90.4872553 107.3879058  65.9545195
  93.2037356 105.8688662  63.3734610  93.1250988 105.5348525  64.2670368
  94.0247023 106.3610430  63.3726082  95.9015548  98.7350401  76.5810929
  95.8691868  97.7966402  76.7670613  96.5116171  98.8134438  75.8476754
  96.0510036  95.5261444  76.6269212  95.5349085  94.7419901  76.4399141
  96.9349985  95.1980161  76.7915731  93.7120763  89.2702460  72.5865025
  93.5145584  88.9617548  73.4708357  94.3220469  89.9964099  72.7162954
 101.7192097  99.7966408  75.7216966 102.4495486  99.5351696  76.2824669
 101.1099043  99.0595130  75.7619034  99.8007395  97.9374270  76.3191417
  99.0740558  97.8030235  75.7107908  99.3854681  98.2451099  77.1248135
  87.6237571 101.6564200  84.0838790  88.5440580 101.8342799  84.2778836
  87.5887154 100.7120245  83.9318489  76.8419736  96.8502794  73.0092064
  76.5222520  95.9968102  72.7166438  76.2953164  97.0651372  73.7650032
  80.6199643  99.5665235  76.7261571  80.8385653 100.4982343  76.7449605
  81.0325417  99.2073209  77.5116375  87.5403861  90.0733320  68.7137259
  86.7304590  89.7280405  69.0892505  88.2288278  89.7640864  69.3024871
  89.4694410  89.1511367  70.3361556  90.0225448  89.5706820  70.9951579
  89.7064496  88.2247115  70.3784512  85.4927509  95.1398440  86.1164320
  85.3924236  96.0892797  86.0476411  85.2749051  94.8116679  85.2440390
  76.7107996 100.4705705  74.9785186  76.0171467 100.0559658  74.4655140
  77.4580987 100.5126242  74.3818605  92.8473217  91.2611892  69.8440220
  92.2671886  91.9196696  69.4618273  92.5809149  90.4389237  69.4327638
  91.2976783  90.6616950  72.0461541  91.7976561  90.7733484  71.2375859
  91.9412391  90.3578003  72.6862349  85.3558779  98.5695579  84.9329381
  84.8725861  99.3695939  85.1393271  85.4419718  98.5803524  83.9796825
  78.6244738 100.4023959  72.8551201  78.6015427 100.5011646  71.9033084
  78.9345375 101.2489110  73.1768367  81.2832116 102.4600114  76.9697815
  82.2375370 102.4284056  76.9027747  81.0844640 101.9990738  77.7848041
  81.8731498 101.0301230  79.5368613  82.6924387 101.5245309  79.5603450
  82.1468306 100.1133198  79.5086180  91.6298095  93.4211982  68.8996568
  90.7423950  93.7061633  68.6816763  92.0452084  93.2605746  68.0523845
  94.9812631  93.4458503  72.6150908  95.7573021  93.9354956  72.8875525
  94.2560765  93.8716558  73.0722777  97.4185189  94.1586123  73.6724848
  98.0129680  93.9181859  72.9618157  97.4911773  93.4393253  74.2998385
  79.6382345 108.0019733  73.9868013  79.5036813 107.2420134  73.4206011
  79.2214407 108.7260633  73.5196802  90.7741308 103.1856657  62.9944588
  91.4777158 103.3906660  63.6102244  90.0503957 103.7533419  63.2593672
  91.6039118  98.9366518  69.1146859  91.5474320  99.3935070  68.2754491
  92.1567461  98.1757203  68.9369701  95.4143924  94.7256250  69.9396978
  95.1580859  94.3252886  70.7705186  94.7896792  95.4400044  69.8147117
  99.7256262  97.4652323  72.4468270  99.1655820  97.5345513  73.2199832
  99.1199766  97.2893308  71.7267766  82.7951471 108.8989051  74.1986456
  82.6783855 109.8434483  74.0965146  81.9743917 108.5962612  74.5872255
  92.6828006 103.6239186  65.0443048  93.5173609 103.1920385  64.8620523
  92.5212348 103.4521200  65.9719943  92.3373898 100.1271300  66.4099388
  92.2822702  99.9615571  65.4687832  91.7119953 100.8347332  66.5661578
  77.1266413  95.3639364  80.2360810  77.7725276  94.8538318  80.7248035
  76.9183564  96.1008046  80.8104235  89.6519805 102.4320211  85.7352951
  90.5210965 102.6060864  85.3739585  89.1726556 103.2514628  85.6128680
  85.6470023  89.6279409  65.9884706  85.6348693  90.5721248  66.1452977
  86.5393445  89.4449554  65.6944167  83.8205985 109.5517312  77.4142384
  84.7233232 109.5840923  77.7308879  83.5943355 108.6217763  77.4288720
  85.5759587 108.3048299  74.0752463  84.6255218 108.3050161  73.9616835
  85.8792073 107.5581034  73.5588497  81.4663904  92.5106981  84.3335824
  82.3295365  92.1543786  84.5439149  80.8929314  92.1720876  85.0211229
 101.3112281 114.1408837  75.1398225 101.9490691 114.0215585  74.4361565
 101.1933124 115.0889681  75.1986177  98.1201987 114.0936265  75.0759750
  97.7820498 113.9777330  74.1880285  98.9891755 113.6927431  75.0560756
  93.9788803 115.9471742  71.0656641  93.4153668 115.8561679  70.2972929
  93.8641198 115.1271646  71.5459133  98.6021770 115.2471117  81.0345955
  98.5910411 114.8523915  80.1626459  98.7642409 114.5137190  81.6279727
  91.5253235 117.4422933  73.9040861  92.3174526 117.1013758  73.4887161
  91.7649885 117.5517909  74.8243015  93.4843988 116.7031847  66.7758240
  94.2574864 116.1560834  66.6371116  93.8369387 117.5676096  66.9872702
  95.3229031 118.0308229  79.9825139  95.0318897 118.9353860  79.8671806
  95.9586015 118.0724757  80.6969209  96.2485238 115.4085077  76.5726499
  96.8448810 115.1841100  75.8583462  96.3060209 114.6669823  77.1751947
  95.8210266 112.8624513  64.4076690  96.0735787 112.3406034  63.6460153
  94.8834825 112.6990658  64.5103374 100.8653549 111.8660291  72.2151433
 101.6516638 111.4479714  71.8641850 101.1292253 112.7706383  72.3833082
 106.2661976 111.8035524  73.1184412 106.9987148 111.2334741  73.3522241
 105.5101332 111.4157125  73.5590917  95.5406555 114.7652619  66.6101065
  95.4242813 114.0897522  67.2782149  95.6508815 114.2784993  65.7933218
  97.8838096 114.2262766  70.3147754  97.5196303 113.6993387  71.0260676
  98.7405212 113.8361235  70.1414240 103.7887397 105.5157098  77.5779020
 103.4570721 106.3852509  77.3540235 103.1933010 105.1993382  78.2573051
  97.5243583 109.2552666  65.3109103  97.6917985 110.1232902  65.6779574
  97.3340752 109.4179947  64.3870392  93.7331398 114.1683441  73.0111638
  92.8081894 114.0359655  73.2189329  93.9815811 114.9477661  73.5081580
 103.6816060 110.2352185  74.6572370 102.7732937 110.1667593  74.3631131
 103.6303656 110.7124130  75.4854196  97.5032804 111.7110323  66.2955770
  97.3832429 112.1567374  67.1341250  96.8085392 112.0595641  65.7369308
  91.0940209 113.8116715  73.8455427  91.2232590 114.0651194  74.7594838
  90.4137660 114.4044423  73.5260082  97.7556926 111.6541830  82.6007268
  96.9790260 112.2135750  82.5910132  98.3947489 112.1398613  83.1222138
 105.5477706 108.4368623  76.4350244 104.9052087 108.7301156  75.7890039
 105.0432635 108.3221543  77.2403441 103.2017870 112.1831796  67.1236104
 104.1135726 112.4159183  66.9483801 102.6927517 112.7668840  66.5611182
  96.0103298 114.4627284  82.1625235  96.7517982 115.0012328  81.8860058
  95.3040283 115.0893572  82.3196787  97.8389708 111.5429031  78.1330953
  98.6850903 111.9668444  78.2765602  97.7788345 110.8862655  78.8269516
 100.9889153 109.2033399  79.7912127 100.7450085 109.9575460  79.2546402
 101.2649084 109.5818747  80.6259374 100.5453845 108.3589832  75.3725965
  99.6838324 108.6571086  75.6642702 100.5716279 108.5760231  74.4406997
  97.3615414 116.9032023  71.7799770  97.8253760 117.1819726  70.9904393
  97.0972212 116.0015467  71.5972861  94.2539495 116.4503504  74.7179533
  94.8240852 116.8790773  74.0797018  94.8447607 116.1686089  75.4163719
  96.2984300 113.0255175  68.5889335  97.0008344 113.4776219  69.0563262
  95.9664929 112.3838994  69.2169228  94.7464662 111.6166932  82.9640545
  94.1163322 112.2983213  83.1975942  94.6400750 111.5050013  82.0193683
  90.0409634 111.2838728  73.8906469  89.2508688 111.5396256  73.4146580
  90.5320882 112.0987066  73.9958509  91.9924380 111.6483307  70.8489946
  91.1955543 111.7602001  71.3673441  91.7649972 111.9869959  69.9830836
  97.8230047 118.1728010  78.7972460  97.8874480 118.6348418  79.6330632
  97.1140971 117.5425375  78.9254770  88.3247337 111.5369218  76.3221460
  88.5755376 112.4216228  76.5879036  88.8606886 111.3573820  75.5496552
  94.0245404 105.9187698  85.3265796  93.6312350 105.3653896  86.0013440
  94.8411545 106.2298276  85.7172313  90.9907462 117.3571556  69.2379366
  91.5031983 118.1514806  69.3884930  91.6430175 116.6597846  69.1712967
  92.8002347 120.4737312  71.3202119  92.9768975 121.3955277  71.1323103
  93.5959180 120.1595731  71.7496499  96.9413365 107.3345577  82.9186052
  97.6823079 107.9352730  82.8390515  97.1731288 106.5923215  82.3604095
  92.0854703 112.5201944  81.1964282  91.9708219 111.6187201  81.4971381
  91.2299221 112.7665641  80.8449099  97.7200833 118.2566614  81.6656692
  98.2529170 117.4954902  81.4356000  97.1914915 117.9640266  82.4080847
 100.8870528 103.3626680  77.1950334 100.5434798 104.2528321  77.1189445
 101.2549491 103.1728337  76.3319919  88.9556379 115.6860210  70.0138936
  89.7931601 116.0957218  69.7972644  89.1334647 114.7459652  69.9839130
 100.8520811 113.3535291  65.7022769 100.3367435 114.1239895  65.9411157
 100.5798120 112.6800427  66.3255831  98.4367922 108.1984992  70.7608008
  97.5809519 107.8091842  70.5813646  98.8494874 108.2776952  69.9007793
  99.9667069 105.7331335  75.1599567  99.4631864 105.6961470  74.3467373
 100.2597676 106.6424078  75.2196224  96.2109955 105.8170065  74.1665749
  97.0762951 105.6212873  73.8071638  96.2787464 105.5880416  75.0935106
 100.6407114 111.2262383  67.5282550 100.3357250 111.5408532  68.3792694
 101.5937556 111.3043803  67.5709883  99.0853546 117.3852606  69.1775504
  98.5574908 116.6505366  68.8648742  98.5841049 118.1627283  68.9315473
  93.8172274 108.0472272  71.5382116  94.3916026 107.8247454  70.8055309
  94.4043256 108.1160967  72.2910717 102.8751851 113.9345999  72.3446492
 103.3883733 114.5675991  72.8468202 103.5253075 113.3347195  71.9789852
  94.1441861 110.0776734  65.5578001  93.3079173 110.4151420  65.8787276
  94.0046631 109.9425713  64.6205138  96.1194941 104.9213521  70.2657185
  95.4659354 104.6062539  69.6413800  96.0775416 104.2989262  70.9917008
  97.2306146 115.2032816  62.1810477  96.3233208 114.9722070  62.3801626
  97.7277178 114.4070436  62.3684459  99.3532682 111.4095455  74.5904833
  98.4355243 111.6310402  74.4326521  99.7692825 111.4841765  73.7316540
 100.1367730 112.8086871  69.7207513 100.8839549 113.3208268  69.4114635
 100.4059319 112.4870923  70.5811907  98.4094380 115.3045411  66.7034467
  97.5005599 115.0204444  66.8006937  98.4389464 115.7244490  65.8437774
 102.5846567 109.8443987  71.7026302 101.8469324 109.3321373  72.0336545
 102.8373340 109.4044368  70.8909579 102.6858194 102.6220239  72.2968072
 102.9917071 101.7617602  72.0093987 103.4110799 103.2137859  72.0967066
  88.9782550 113.0250925  70.6849670  88.7806950 112.4320286  69.9600736
  88.4229214 112.7203136  71.4025608  96.9579274 112.9174032  72.8044263
  97.0127884 111.9647868  72.7286739  96.1470476 113.0733471  73.2885561
  98.1070468 116.8454155  64.0422546  97.6689898 116.1290014  63.5828183
  98.8480908 117.0730270  63.4807637  94.8971634 111.5351092  70.5634642
  94.0839499 111.8345262  70.9699834  95.3930628 111.1406780  71.2809124
 100.4945845 111.9992916  79.3949536 100.8495233 112.2264389  80.2544001
 101.1417977 112.3311293  78.7726791  94.3885708 109.1069447  76.1795877
  95.0285088 108.9658206  75.4818840  93.5563239 108.8203961  75.8034479
  95.1646012 118.4071878  72.2930869  95.9586611 117.9122198  72.0913444
  94.4537705 117.8789741  71.9298575  91.4728776 112.5514959  68.3690622
  90.5426364 112.4899415  68.5860584  91.5686248 112.0290912  67.5727263
  91.3914325 109.0769772  70.9568863  91.6521142 109.9915105  70.8478024
  92.2131497 108.6094215  71.1065476  92.8639250 110.4907529  78.1267688
  93.5362304 110.2824891  77.4780337  92.0369037 110.2929615  77.6872920
  98.7664822 107.1169470  80.1433349  98.1192737 107.8159420  80.0497825
  99.5365838 107.5505614  80.5109597  98.9428957 114.9550235  78.2030169
  99.8721017 115.1061395  78.0299136  98.5219987 115.0434256  77.3478815
  97.7417288 118.9800900  75.9728706  97.6028374 118.6119684  76.8454644
  96.9531885 119.4948539  75.8012664  93.2666748 113.7650132  78.8870125
  93.1286545 113.0330371  79.4881664  94.1771671 113.6759032  78.6054313
  95.8949048 113.4770092  78.3753805  96.6048667 112.8363284  78.3340423
  95.8518356 113.7282986  79.2979986  94.6077982 110.4635310  80.1949444
  94.0715339 110.0126048  80.8471041  94.0194691 110.5981218  79.4519909
  94.0180241 109.9223961  62.7575908  93.1409707 109.8012762  62.3938155
  94.4937994 109.1310039  62.5054797  85.5382381 114.7101121  72.8517415
  86.2253421 114.3962851  72.2638430  85.3830510 115.6142485  72.5784666
  90.3417103 109.5991317  77.2802439  90.2575292 108.9916987  76.5452849
  89.5199810 110.0900336  77.2811935 100.5140817 108.0844881  72.6472634
 101.0109517 107.3314843  72.3273704  99.7427799 108.1209197  72.0815843
  97.0975786 110.2262264  72.3744318  96.7273574 109.6733304  73.0625224
  97.5934878 109.6220397  71.8219318 104.9843149 112.6833887  70.7561091
 105.4503601 113.5161879  70.6821394 105.4350650 112.2178869  71.4606350
 102.9559812 105.0514474  74.7951993 102.0422892 105.2818701  74.9634200
 103.3852914 105.1352918  75.6466025 102.7266271 113.2404366  77.2951887
 102.0737721 113.4880274  76.6404339 103.1046650 112.4268504  76.9614364
  98.7753844 113.9824177  83.7817924  98.0994481 113.8818307  84.4520299
  99.5981477 113.8263391  84.2453921  90.5232703 120.2196114  76.4030439
  91.1086139 119.4739802  76.5358343  90.3257541 120.5300071  77.2867103
  85.1150357 112.7901714  75.1234882  85.1534457 112.2565305  75.9172000
  84.6090650 112.2636920  74.5045859  92.4941120 107.6366255  78.6197424
  92.5582446 108.4981085  78.2074822  92.4308240 107.0240256  77.8869783
  91.9693392 109.7089387  82.2670459  92.5965431 109.3266464  82.8807983
  91.1121311 109.4903589  82.6326151  88.7458935 111.5165816  68.1988814
  89.0412376 110.6076495  68.1455867  87.8446971 111.4953556  67.8769816
  92.2753182 109.5921813  74.1816362  91.5539768 110.2057780  74.0423835
  93.0646438 110.1279578  74.1033008  95.0779495 106.9276239  80.4557014
  95.6013897 107.1738536  81.2183323  94.8591829 107.7596274  80.0360151
  90.4746777 109.1979914  68.3228139  90.1459483 108.3177293  68.1403245
  90.8286147 109.1427583  69.2104528  93.5888600 109.4852884  68.6903616
  93.9284672 110.0138805  67.9682225  94.0360720 109.8233290  69.4662183
  96.2832041 107.8689934  78.1406684  95.9428861 107.0697747  78.5427364
  95.5771047 108.1691645  77.5683518  96.9348512 104.9539247  76.5934007
  97.7574582 104.4799725  76.4712898  97.1786576 105.7329731  77.0932694
  95.5756747 107.9827505  66.8896909  96.2965109 108.3608758  66.3860626
  94.9522051 108.7016382  66.9931887  99.7187870 108.6872654  67.8255241
  99.9351484 109.5697292  67.5244070  99.2381937 108.2958868  67.0960883
  94.4587091 111.6458367  74.4025986  94.3131672 111.9598670  75.2950268
  93.9812295 112.2643268  73.8496885  96.3183474 108.6360915  74.4506876
  96.3045043 107.7402009  74.1139174  97.0355902 108.6431579  75.0845162
  98.1709605 109.0698256  76.4960003  97.9127383 109.9915326  76.4944333
  97.6394645 108.6728690  77.1860467  88.9332753 114.1863712  77.3413647
  88.3886221 114.9623520  77.4733922  89.8112103 114.5334516  77.1832769
  95.7220370 107.5175296  69.7194446  95.8436281 106.5891942  69.9185333
  95.4322412 107.5313982  68.8072761  98.5911560 105.2030206  72.8561166
  98.6133257 105.2669539  71.9013145  99.0079619 104.3634715  73.0501672
  89.7198775 113.3133608  80.2343804  88.9780511 113.4616243  80.8208435
  89.3991519 113.5741874  79.3710553  90.1655389 121.1999037  72.2654199
  90.9913409 120.9002809  71.8852842  89.8149441 120.4306659  72.7143987
  95.1336922 120.5525505  74.3351872  94.5116931 119.8896210  74.0354100
  95.8041789 120.5786637  73.6525520  88.3663994 119.1185363  73.2243132
  87.5295902 118.6907538  73.0427134  88.3387639 119.3117807  74.1613924
  95.2061449 109.0307293  83.9284378  95.2549605 109.9069416  83.5462148
  95.7483964 108.4884686  83.3556022  94.6950429 119.1029428  67.8110333
  94.8438549 119.7864893  67.1577006  95.5016872 119.0834518  68.3259789
 103.1017933 112.4071811  81.8377551 104.0027795 112.2678276  81.5461548
 103.1765907 112.5726266  82.7775728  97.4360738 109.7838665  80.6830737
  96.5664047 110.0772232  80.4113326  97.6720218 110.3679110  81.4038001
  92.4503062 115.1294606  68.8171402  92.2049104 114.2256936  69.0151612
  92.6198976 115.1311756  67.8750880 100.1399772 106.0018282  78.1996157
 100.6581716 106.7379309  77.8742646  99.7854905 106.3082276  79.0342916
  91.7198709 110.8622964  66.3157563  91.0267954 110.9367319  65.6597599
  91.4750461 110.0983307  66.8379080 100.3912366 102.4218565  73.7197054
 100.6714120 101.7541754  74.3457481 101.1762973 102.6147661  73.2071718
 104.2621224 110.8436199  77.4668629 105.2138647 110.9434297  77.4880853
 104.0924675 110.0514467  77.9766713 102.2835604 107.9291782  77.6528030
 101.6885536 108.2096795  76.9574519 101.9985300 108.4185683  78.4244771
  98.5792633 112.9338372  62.6238133  99.5251738 112.8044580  62.6926551
  98.2006878 112.1953033  63.1007561 106.8903791 110.8553362  76.6269212
 106.3742839 110.0711819  76.4399141 107.7743739 110.5272079  76.7915731
 104.5514517 104.5994378  72.5865025 104.3539339 104.2909466  73.4708357
 105.1614223 105.3256017  72.7162954  98.4631325 116.9856118  84.0838790
  99.3834335 117.1634717  84.2778836  98.4280908 116.0412163  83.9318489
  96.7635550 110.8588348  62.5593018  95.8567005 110.5621461  62.6355732
  97.0411531 110.5618166  61.6927304  87.6813490 112.1794711  73.0092064
  87.3616275 111.3260020  72.7166438  87.1346919 112.3943290  73.7650032
  91.4593398 114.8957152  76.7261571  91.6779408 115.8274260  76.7449605
  91.8719172 114.5365127  77.5116375  98.3797616 105.4025238  68.7137259
  97.5698344 105.0572323  69.0892505  99.0682033 105.0932781  69.3024871
 100.3088164 104.4803284  70.3361556 100.8619203 104.8998738  70.9951579
 100.5458250 103.5539033  70.3784512  96.3321263 110.4690358  86.1164320
  96.2317990 111.4184715  86.0476411  96.1142805 110.1408597  85.2440390
  95.5334335 107.7175283  62.7004997  96.3953499 108.0430182  62.9600815
  95.7184679 106.9306779  62.1878063  87.5501750 115.7997623  74.9785186
  86.8565222 115.3851576  74.4655140  88.2974741 115.8418159  74.3818605
 103.6866971 106.5903810  69.8440220 103.1065640 107.2488614  69.4618273
 103.4202904 105.7681154  69.4327638 102.1370538 105.9908867  72.0461541
 102.6370316 106.1025402  71.2375859 102.7806145 105.6869920  72.6862349
  96.1952533 113.8987497  84.9329381  95.7119615 114.6987857  85.1393271
  96.2813472 113.9095442  83.9796825  89.4638493 115.7315877  72.8551201
  89.4409181 115.8303564  71.9033084  89.7739129 116.5781027  73.1768367
  92.1225871 117.7892032  76.9697815  93.0769124 117.7575974  76.9027747
  91.9238394 117.3282655  77.7848041  92.7125253 116.3593148  79.5368613
  93.5318142 116.8537226  79.5603450  92.9862061 115.4425116  79.5086180
 102.4691849 108.7503900  68.8996568 101.5817704 109.0353551  68.6816763
 102.8845838 108.5897663  68.0523845 105.8206385 108.7750421  72.6150908
 106.5966775 109.2646873  72.8875525 105.0954519 109.2008475  73.0722777
 108.2578944 109.4878040  73.6724848 108.8523435 109.2473776  72.9618157
 108.3305528 108.7685171  74.2998385  90.4776100 123.3311651  73.9868013
  90.3430568 122.5712052  73.4206011  90.0608162 124.0552551  73.5196802
 102.4432873 114.2658436  69.1146859 102.3868074 114.7226987  68.2754491
 102.9961215 113.5049121  68.9369701 106.2537679 110.0548168  69.9396978
 105.9974613 109.6544803  70.7705186 105.6290547 110.7691962  69.8147117
  87.9660167 110.6931282  80.2360810  88.6119031 110.1830236  80.7248035
  87.7577318 111.4299963  80.8104235  96.4863778 104.9571326  65.9884706
  96.4742448 105.9013166  66.1452977  97.3787200 104.7741472  65.6944167
 100.3015897 101.5514103  70.2430643  99.5348293 100.9972590  70.3887325
 100.7126602 101.6235972  71.1044795  92.3057658 107.8398899  84.3335824
  93.1689120 107.4835704  84.5439149  91.7323069 107.5012793  85.0211229
  36.2749755  -0.8280546  61.8643532  36.9128165  -0.9473799  61.1606872
  36.1570598   0.1200298  61.9231484  33.0839461  -0.8753118  61.8005057
  32.7457973  -0.9912053  60.9125591  33.9529229  -1.2761953  61.7806063
  28.9426277   0.9782358  57.7901948  28.3791142   0.8872295  57.0218235
  28.8278672   0.1582263  58.2704440  33.5659244   0.2781734  67.7591262
  33.5547885  -0.1165468  66.8871766  33.7279884  -0.4552194  68.3525034
  26.4890709   2.4733550  60.6286168  27.2812001   2.1324375  60.2132467
  26.7287359   2.5828525  61.5488321  34.5225836   4.6453326  53.1016412
  33.8713815   5.2307407  52.7150426  35.3170198   5.1759521  53.1611450
  28.4481463   1.7342463  53.5003547  29.2212339   1.1871450  53.3616423
  28.8006862   2.5986713  53.7118008  30.2866505   3.0618846  66.7070446
  29.9956371   3.9664476  66.5917112  30.9223490   3.1035373  67.4214516
  31.2122712   0.4395694  63.2971806  31.8086284   0.2151716  62.5828769
  31.2697684  -0.3019560  63.8997254  30.7847741  -2.1064871  51.1321997
  31.0373261  -2.6283349  50.3705460  29.8472300  -2.2698725  51.2348680
  35.8291023  -3.1029092  58.9396740  36.6154113  -3.5209669  58.5887157
  36.0929728  -2.1983000  59.1078388  36.0001101   2.3343758  53.6385397
  35.3646934   2.4078385  54.3506301  35.6698507   2.9237357  52.9604476
  41.2299451  -3.1653859  59.8429718  41.9624623  -3.7354642  60.0767548
  40.4738806  -3.5532259  60.2836224  30.5044029  -0.2036765  53.3346372
  30.3880287  -0.8791861  54.0027456  30.6146289  -0.6904391  52.5178525
  32.8475570  -0.7426618  57.0393061  32.4833778  -1.2695997  57.7505982
  33.7042686  -1.1328149  56.8659546  35.2456390   2.7480261  63.7020240
  34.9457114   3.6505300  63.5936047  34.9007450   2.4812444  64.5541393
  28.6968872  -0.8005942  59.7356944  27.7719368  -0.9329728  59.9434636
  28.9453285  -0.0211723  60.2326887  38.6453534  -4.7337199  61.3817677
  37.7370412  -4.8021790  61.0876438  38.5941130  -4.2565254  62.2099503
  32.4670278  -3.2579060  53.0201076  32.3469903  -2.8122010  53.8586557
  31.7722867  -2.9093743  52.4614614  30.2277170   9.5124581  56.6691207
  30.1501200  10.4632406  56.7479688  29.6238814   9.1670454  57.3266134
  32.7194400  -3.3147553  69.3252574  31.9427734  -2.7553633  69.3155439
  33.3584963  -2.8290770  69.8467444  40.5115181  -6.5320760  63.1595551
  39.8689561  -6.2388227  62.5135346  40.0070109  -6.6467840  63.9648748
  38.1655344  -2.7857587  53.8481410  39.0773200  -2.5530200  53.6729108
  37.6564991  -2.2020543  53.2856489  30.9740772  -0.5062100  68.8870541
  31.7155457   0.0322944  68.6105365  30.2677758   0.1204189  69.0442093
  36.4496112   1.6367041  67.4842703  36.8579468   1.1949451  66.7397335
  35.7273373   1.0619668  67.7376896  32.8027182  -3.4260353  64.8576260
  33.6488377  -3.0020939  65.0010909  32.7425820  -4.0826728  65.5514823
  36.7724927   2.1968231  61.2394992  36.1433789   2.3613945  60.5371060
  36.3850589   2.6109841  62.0105956  40.6514159   3.1322669  58.5939356
  39.9665197   3.5121570  58.0436389  40.7358008   3.7417996  59.3271303
  35.9526627  -5.7655984  66.5157433  35.7087559  -5.0113924  65.9791709
  36.2286558  -5.3870637  67.3504681  37.9065090   0.7782628  65.1934699
  38.1181985   1.4214388  64.5169080  37.8594838  -0.0555055  64.7256629
  32.3252888   1.9342639  58.5045077  32.7891234   2.2130342  57.7149699
  32.0609687   1.0326084  58.3218168  29.2176970   1.4814121  61.4424840
  29.7878327   1.9101389  60.8042325  29.8085081   1.1996706  62.1409026
  31.2621775  -1.9434208  55.3134642  31.9645818  -1.4913165  55.7808568
  30.9302403  -2.5850389  55.9414535  39.0210918   3.6554584  63.3657056
  39.8428362   3.2534771  63.0839738  39.0173321   3.5522818  64.3173172
  32.7867522   3.2038627  65.5217767  32.8511954   3.6659034  66.3575939
  32.0778445   2.5735992  65.6500077  47.1116911  -0.0006668  59.7142028
  46.3580619  -0.5699270  59.5586032  47.2464452  -0.0344003  60.6612663
  32.5015539   4.8706734  55.3896747  32.3661214   5.7158270  55.8181595
  33.0425352   5.0726012  54.6262681  25.9544937   2.3882172  55.9624672
  26.4669457   3.1825423  56.1130237  26.6067649   1.6908463  55.8958274
  27.7639821   5.5047929  58.0447425  27.9406450   6.4265893  57.8568409
  28.5596655   5.1906348  58.4741805  34.1284016   5.4930301  69.5197089
  33.6847870   4.7066679  69.2017994  34.7901229   5.6809451  68.8540980
  28.8871137   7.0226102  64.0457768  29.4378562   6.8943166  63.2734762
  28.0482613   7.3220991  63.6952661  36.2265254   5.7733101  67.5478491
  36.2083729   6.5941982  67.0558760  37.1485174   5.6487176  67.7728632
  32.6838308   3.2877230  68.3901999  33.2166645   2.5265518  68.1601307
  32.1552389   2.9950882  69.1326153  35.8158285  -1.6154093  52.4268076
  35.3004909  -0.8449488  52.6656463  35.5435594  -2.2888957  53.0501137
  40.7892560   1.1378262  54.3621249  40.0122002   0.7989421  53.9176411
  41.4684041   1.1430885  53.6876214  35.6044589  -3.7427001  54.2527857
  35.2994724  -3.4280851  55.1038000  36.5575031  -3.6645581  54.2955190
  34.0491020   2.4163223  55.9020811  33.5212382   1.6815982  55.5894048
  33.5478523   3.1937899  55.6560779  39.0283866   0.6112243  61.0187857
  38.3707541   1.3011505  61.1067986  39.8324266   1.0008675  61.3621844
  37.8389325  -1.0343384  59.0691799  38.3521207  -0.4013392  59.5713509
  38.4890549  -1.6342189  58.7035159  32.1943621   0.2343433  48.9055784
  31.2870682   0.0032686  49.1046933  32.6914653  -0.5618948  49.0929766
  35.1011700   8.9440940  51.8252470  34.4273398   9.2472637  52.4337428
  35.4877522   9.7470021  51.4757927  34.3170156  -3.5593929  61.3150140
  33.3992718  -3.3378982  61.1571828  34.7330300  -3.4847618  60.4561847
  35.1005204  -2.1602513  56.4452820  35.8477023  -1.6481116  56.1359942
  35.3696793  -2.4818460  57.3057213  33.3731854   0.3356028  53.4279774
  32.4643073   0.0515061  53.5252244  33.4026938   0.7555106  52.5683081
  38.6051122   3.9462617  57.1970942  38.1513449   3.1053527  57.2536132
  37.9745088   4.5824016  57.5345722  37.5484041  -5.1245397  58.4271609
  36.8106798  -5.6368010  58.7581852  37.8010815  -5.5645015  57.6154886
  37.0484061   5.7839114  58.1320760  37.3407035   6.3444171  57.4133125
  37.5582681   6.0767675  58.8873919  31.9216748  -2.0515352  59.5289569
  31.9765358  -3.0041515  59.4532046  31.1107950  -1.8955912  60.0130868
  33.0707942   1.8764772  50.7667853  32.6327372   1.1600630  50.3073490
  33.8118383   2.1040886  50.2052944  32.0117686   6.5619465  59.2214213
  31.9693865   6.7880311  58.2922745  32.9280385   6.3282840  59.3700014
  35.4583320  -2.9696467  66.1194842  35.8132707  -2.7424994  66.9789308
  36.1055451  -2.6378091  65.4972097  41.1881057   0.1521969  56.8244171
  41.0498955   0.3423565  55.8965360  40.8317275   0.9141351  57.2812222
  41.2150436   2.2198496  61.8355443  41.6486943   2.1273785  62.6838497
  41.9282017   2.1955996  61.1975459  30.1283487   3.4382494  59.0176176
  30.9224085   2.9432814  58.8158751  29.4175179   2.9100357  58.6543881
  34.9478331   5.8200590  63.3688543  35.0015353   6.3891526  64.1366259
  34.0793113   5.9902475  63.0042580  42.0765986   2.2622196  64.3688328
  42.2701876   3.1668007  64.6147603  41.9766604   1.8029615  65.2026913
  37.1381095   2.4128939  69.9429209  36.9866601   2.1839491  69.0259292
  37.1285774   3.3699540  69.9560554  33.9066431  -0.0139148  64.9275475
  34.8358491   0.1372011  64.7544442  33.4857461   0.0744873  64.0724122
  32.7054763   4.0111516  62.6974013  32.5665848   3.6430301  63.5699951
  31.9169359   4.5259156  62.5257971  33.3002915   9.1120613  54.0399549
  33.4754670   8.6408656  54.8545172  32.6135703   9.7386379  54.2680810
  34.2559978   3.3893119  60.0862851  33.9209810   3.3493889  60.9820500
  33.7563924   2.7237835  59.6133261  37.1919170   0.7349153  50.3599910
  36.5748340   0.0095981  50.2632963  36.7235658   1.4958513  50.0166984
  30.8586522  -1.4919292  65.0999111  31.5686141  -2.1326100  65.0585730
  30.8155831  -1.2406397  66.0225292  38.8473301   5.4448062  68.0205691
  38.7885847   4.7607282  67.3536274  39.2492820   6.1867052  67.5686317
  27.8664000  12.2609975  60.8139409  28.1060598  12.8928500  61.4918428
  27.0233196  11.9098015  61.1004769  38.8490708   3.4087645  66.2519670
  37.9617487   3.0713567  66.3746069  39.4189259   2.6770677  66.4888436
  32.3791862   8.0689098  63.2180913  32.3062033   8.8744069  63.7300218
  31.9369255   8.2681064  62.3928935  32.1681641   7.3060868  56.7283735
  31.3849163   7.8482548  56.8221960  32.8674387   7.8234847  57.1277976
  43.3308049  -1.1804137  61.0136232  43.3197925  -0.2979422  60.6430165
  42.4625428  -1.5332586  60.8190769  34.8390545   7.9675932  65.3739072
  35.5518518   8.6023397  65.3014974  34.3480574   8.0639798  64.5579074
  36.5608072   1.8727185  56.9456364  35.6264351   1.9928647  56.7761068
  36.7384741   0.9699651  56.6816374  39.9480624  -2.2855496  57.4806398
  40.4141076  -1.4527505  57.4066701  40.3988124  -2.7510515  58.1851656
  29.8902459   5.7170375  66.1944643  30.5911918   6.3506858  66.3474037
  29.4197574   6.0585107  65.4340282  38.0156855   4.0588325  54.4792550
  38.2916699   3.9444920  55.3886424  37.1461353   3.6605810  54.4404723
  37.6903745  -1.7285017  64.0197193  37.0375195  -1.4809110  63.3649646
  38.0684125  -2.5420879  63.6859671  34.6510919   8.3074676  58.1225364
  34.8333313   7.4896332  58.5853116  35.4743905   8.5242368  57.6850254
  34.9853084   7.2342861  55.3840412  35.5140851   6.7235316  54.7710574
  35.2481304   6.9185391  56.2485945  33.7391318  -0.9865206  70.5063230
  33.0631955  -1.0871077  71.1765606  34.5618952  -1.1425992  70.9699228
  25.4870177   5.2506730  63.1275746  26.0723614   4.5050418  63.2603650
  25.2895015   5.5610687  64.0112410  28.3408832   8.2857978  58.1438188
  27.6719207   8.7704105  57.6602228  28.2021702   8.5327198  59.0581567
  32.4814101  10.3201721  64.7420846  33.0332409  10.4833343  65.5069932
  32.8220294  10.9106159  64.0700871  37.3324975   5.1462979  70.5969501
  37.8764879   5.7592937  70.1024456  36.7511820   5.7042557  71.1136514
  35.6182488   8.2683697  61.7284529  35.4933627   7.4673437  61.2195474
  36.2761579   8.7629890  61.2398499  37.6817396   6.0692717  63.3564079
  36.7347732   5.9498068  63.2842405  38.0300170   5.1815215  63.4390340
  34.6863830   5.8645433  59.5568431  34.5388792   4.9362141  59.7376001
  35.5117323   5.8865524  59.0725506  38.2897952   6.6873992  60.6433304
  39.2144499   6.4816853  60.5057755  38.1213255   6.4390393  61.5522645
  38.0793268   7.2059659  55.9995395  38.2530145   6.6406082  55.2469248
  38.5722159   8.0060554  55.8174885  43.9332659  -0.0303918  57.6185695
  44.3763805  -0.7796593  57.2204818  43.0559169  -0.0393781  57.2359427
  39.0668440   6.5226424  53.0992293  39.7619345   7.1433116  53.3179608
  39.4091590   5.6721775  53.3744671  40.9659863   3.9726129  54.6279624
  41.4911187   4.3113402  53.9028944  40.8782216   3.0373145  54.4442759
  32.6279912   7.8860203  66.7569501  32.9367039   7.6409350  67.6292200
  33.4255394   8.0906841  66.2688371  32.6500524  10.0398112  58.9874877
  32.2105514   9.5474491  59.6807734  33.4008641   9.4971080  58.7466953
  25.1292863   6.2309653  58.9899505  25.9550883   5.9313425  58.6098149
  24.7786915   5.4617276  59.4389294  30.0974396   5.5836122  61.0597179
  29.4754406   4.9206827  60.7599407  30.7679263   5.6097253  60.3770827
  23.3301468   4.1495980  59.9488439  22.4933376   3.7218154  59.7672440
  23.3025114   4.3428423  60.8859230  40.6553769   4.6059033  69.9330822
  39.8649313   4.5883172  69.3935321  40.4187124   5.1447327  70.6879859
  40.7751644   1.4551499  67.2463551  40.8249649   1.2901507  68.1879073
  40.6665568   0.5878758  66.8561431  29.6587903   4.1340045  54.5355640
  29.8076024   4.8175509  53.8822312  30.4654347   4.1145135  55.0505095
  38.0655407  -2.5617573  68.5622857  38.9665270  -2.7011108  68.2706855
  38.1403381  -2.3963118  69.5021035  42.2769841   3.8748441  67.4905572
  41.9854650   4.2378421  68.3269033  41.6641973   3.1615449  67.3118904
  43.4765524   1.4401321  60.0108142  44.3112415   1.8791125  60.1745703
  43.6124652   0.9639974  59.1916388  40.5257030  -1.0018945  65.9585630
  41.0011151  -0.8091298  65.1504482  39.6022595  -0.9459759  65.7129014
  27.4140536   0.1605223  55.5416708  27.1686578  -0.7432447  55.7396919
  27.5836451   0.1622373  54.5996186  33.1583309   6.6288175  52.0067387
  32.5857276   7.2478363  51.5537859  33.7316102   7.1787537  52.5407309
  39.2258699  -4.1253185  64.1913936  40.1776121  -4.0255087  64.2126160
  39.0562149  -4.9174916  64.7012020  37.2473078  -7.0397601  64.3773337
  36.6523010  -6.7592589  63.6819825  36.9622775  -6.5503700  65.1490078
  36.3780568   6.9125325  53.1375969  37.3111242   6.8470887  53.3408845
  36.2903781   7.7481592  52.6790502  39.0068585   6.2291196  50.0979917
  38.9282217   5.8951059  50.9915675  39.8278252   6.7212964  50.0971389
  41.7046776  -0.9047065  63.3056235  41.6723096  -1.8431064  63.4915919
  42.3147400  -0.8263028  62.5722060  33.5430107  -2.0351012  49.3483439
  34.4889212  -2.1644804  49.4171857  33.1644352  -2.7736350  49.8252868
  41.8541265  -4.1136021  63.3514519  41.3380313  -4.8977565  63.1644447
  42.7381213  -4.4417305  63.5161038  47.5223326   0.1568942  62.4462272
  48.2526715  -0.1045770  63.0069976  46.9130272  -0.5802336  62.4864340
  45.6038623  -1.7023195  63.0436723  44.8771787  -1.8367230  62.4353215
  45.1885910  -1.3946367  63.8493441  33.4268800   2.0166734  70.8084096
  34.3471809   2.1945333  71.0024143  33.3918383   1.0722780  70.6563796
  26.4230872  -0.0732231  63.4506878  26.6416882   0.8584877  63.4694911
  26.8356646  -0.4324257  64.2361681  31.1590008  -1.0701886  71.6574688
  30.6757089  -0.2701526  71.8638577  31.2450947  -1.0593942  70.7042132
  27.0863345   2.8202648  63.6943122  28.0406599   2.7886591  63.6273053
  26.8875869   2.3593272  64.5093348  27.6762727   1.3903764  66.2613920
  28.4955616   1.8847843  66.2848757  27.9499535   0.4735732  66.2331487
  37.4329323  -6.2185483  55.6241875  36.5455179  -5.9335833  55.4062070
  37.8483313  -6.3791720  54.7769152  40.7843860  -6.1938962  59.3396214
  41.5604250  -5.7042510  59.6120831  40.0591994  -5.7680908  59.7968084
  43.2216418  -5.4811343  60.3970155  43.8160909  -5.7215607  59.6863463
  43.2943002  -6.2004213  61.0243691  25.4413574   8.3622268  60.7113320
  25.3068042   7.6022669  60.1451318  25.0245636   9.0863168  60.2442109
  36.5772537   3.5459191  49.7189895  37.2808387   3.7509194  50.3347551
  35.8535186   4.1135953  49.9838979  37.4070347  -0.7030947  55.8392165
  37.3505549  -0.2462396  54.9999798  37.9598690  -1.4640263  55.6615008
  41.2175153  -4.9141216  56.6642285  40.9612087  -5.3144580  57.4950492
  40.5928021  -4.1997422  56.5392424  45.5287491  -2.1745142  59.1713576
  44.9687049  -2.1051953  59.9445138  44.9230994  -2.3504158  58.4513072
  28.5982700   9.2591585  60.9231762  28.4815084  10.2037017  60.8210453
  27.7775146   8.9565146  61.3117562  38.4859234   3.9841720  51.7688355
  39.3204838   3.5522919  51.5865830  38.3243577   3.8123734  52.6965250
  38.1405127   0.4873834  53.1344694  38.0853930   0.3218105  52.1933139
  37.5151182   1.1949867  53.2906884  35.4551034   2.7922746  72.4598257
  36.3242193   2.9663398  72.0984892  34.9757785   3.6117162  72.3373987
  29.6237214   9.9119847  64.1387691  30.5264461   9.9443457  64.4554186
  29.3974584   8.9820298  64.1534027  31.3790816   8.6650833  60.7997769
  30.4286447   8.6652695  60.6862142  31.6823302   7.9183568  60.2833804
  45.3619590  19.9745244  53.1016412  44.7107570  20.5599324  52.7150426
  46.1563953  20.5051439  53.1611450  39.2875217  17.0634381  53.5003547
  40.0606093  16.5163368  53.3616423  39.6400616  17.9278630  53.7118008
  41.6241495  13.2227047  51.1321997  41.8767016  12.7008568  50.3705460
  40.6866054  13.0593192  51.2348680  46.8394855  17.6635676  53.6385397
  46.2040688  17.7370302  54.3506301  46.5092262  18.2529275  52.9604476
  41.3437784  15.1255153  53.3346372  41.2274042  14.4500056  54.0027456
  41.4540044  14.6387527  52.5178525  49.5918625   5.8759633  64.3024327
  49.2601950   6.7455044  64.0785542  48.9964239   5.5595917  64.9818357
  43.3274812   9.6155200  52.0354409  43.4949214  10.4835436  52.4024880
  43.1371981   9.7782481  51.1115699  49.4847289  10.5954719  61.3817677
  48.5764166  10.5270127  61.0876438  49.4334885  11.0726664  62.2099503
  43.3064033  12.0712857  53.0201076  43.1863658  12.5169908  53.8586557
  42.6116621  12.4198175  52.4614614  43.5588155  12.0144364  69.3252574
  42.7821489  12.5738285  69.3155439  44.1978718  12.5001147  69.8467444
  51.3508935   8.7971157  63.1595551  50.7083315   9.0903690  62.5135346
  50.8463864   8.6824078  63.9648748  49.0049099  12.5434330  53.8481410
  49.9166955  12.7761717  53.6729108  48.4958746  13.1271375  53.2856489
  41.8134527  14.8229818  68.8870541  42.5549211  15.3614862  68.6105365
  41.1071512  15.4496107  69.0442093  46.7920382   9.5635933  66.5157433
  46.5481314  10.3177994  65.9791709  47.0680312   9.9421281  67.3504681
  46.3485074   8.7192366  62.0971271  45.4869553   9.0173620  62.3888009
  46.3747508   8.9362765  61.1652304  42.1015529  13.3857709  55.3134642
  42.8039572  13.8378753  55.7808568  41.7696158  12.7441528  55.9414535
  40.5495891  11.9769466  69.6885851  39.9194551  12.6585747  69.9221248
  40.4431978  11.8652548  68.7438990  35.8440863  11.6441262  60.6151776
  35.0539917  11.8998791  60.1391886  36.3352110  12.4589600  60.7203816
  37.7955608  12.0085841  57.5735252  36.9986772  12.1204536  58.0918748
  37.5681201  12.3472494  56.7076143  34.1278566  11.8971752  63.0466766
  34.3786604  12.7818762  63.3124342  34.6638114  11.7176354  62.2741858
  57.9510666  15.3285250  59.7142028  57.1974374  14.7592648  59.5586032
  58.0858207  15.2947914  60.6612663  43.3409294  20.1998652  55.3896747
  43.2054968  21.0450188  55.8181595  43.8819106  20.4017930  54.6262681
  39.8276633   6.2790232  72.0511102  39.4343579   5.7256430  72.7258747
  40.6442774   6.5900810  72.4417620  36.7938691  17.7174090  55.9624672
  37.3063212  18.5117340  56.1130237  37.4461404  17.0200380  55.8958274
  42.7444594   7.6948111  69.6431359  43.4854308   8.2955264  69.5635821
  42.9762517   6.9525749  69.0849402  37.8885932  12.8804478  67.9209589
  37.7739447  11.9789735  68.2216688  37.0330450  13.1268175  67.5694405
  46.6901757   3.7229214  63.9195641  46.3466027   4.6130856  63.8434751
  47.0580720   3.5330872  63.0565226  34.7587608  16.0462744  56.7384243
  35.5962830  16.4559753  56.5217951  34.9365876  15.1062187  56.7084437
  46.6552040  13.7137825  52.4268076  46.1398663  14.4842430  52.6656463
  46.3829348  13.0402961  53.0501137  44.2399151   8.5587526  57.4853314
  43.3840747   8.1694376  57.3058953  44.6526103   8.6379487  56.6253100
  45.7698298   6.0933869  61.8844874  45.2663093   6.0564004  61.0712679
  46.0628904   7.0026612  61.9441531  42.0141183   6.1772599  60.8911056
  42.8794180   5.9815407  60.5316945  42.0818692   5.9482951  61.8180412
  46.4438343  11.5864917  54.2527857  46.1388479  11.9011066  55.1038000
  47.3968785  11.6646337  54.2955190  39.6203503   8.4074807  58.2627422
  40.1947254   8.1849988  57.5300615  40.2074485   8.4763501  59.0156024
  39.9473090  10.4379268  52.2823308  39.1110402  10.7753954  52.6032582
  39.8077859  10.3028248  51.3450445  41.9226170   5.2816056  56.9902492
  41.2690583   4.9665073  56.3659107  41.8806644   4.6591796  57.7162315
  43.0337375  15.5635351  48.9055784  42.1264437  15.3324604  49.1046933
  43.5308407  14.7672970  49.0929766  45.9405454  24.2732858  51.8252470
  45.2667153  24.5764555  52.4337428  46.3271276  25.0761938  51.4757927
  45.1563911  11.7697989  61.3150140  44.2386472  11.9912936  61.1571828
  45.5724054  11.8444300  60.4561847  44.2125609  15.6647946  53.4279774
  43.3036828  15.3806978  53.5252244  44.2420692  16.0847024  52.5683081
  48.3877796  10.2046521  58.4271609  47.6500552   9.6923907  58.7581852
  48.6404569   9.7646903  57.6154886  48.4889423   2.9822773  59.0213378
  48.7948300   2.1220136  58.7339293  49.2142028   3.5740393  58.8212372
  34.7813779  13.3853460  57.4094976  34.5838179  12.7922820  56.6846043
  34.2260443  13.0805670  58.1270915  43.9101696  17.2056689  50.7667853
  43.4721126  16.4892548  50.3073490  44.6512137  17.4332804  50.2052944
  40.7002863  11.8953626  57.2879948  39.8870728  12.1947796  57.6945140
  41.1961857  11.5009315  58.0054431  40.1916937   9.4671981  62.9041183
  40.8316317   9.3260741  62.2064147  39.3594468   9.1806495  62.5279785
  37.2760005  12.9117494  55.0935928  36.3457593  12.8501949  55.3105891
  37.3717477  12.3893446  54.2972570  37.1945554   9.4372306  57.6814170
  37.4552371  10.3517640  57.5723331  38.0162726   8.9696749  57.8310783
  38.6670479  10.8510064  64.8512995  39.3393532  10.6427426  64.2025643
  37.8400266  10.6532150  64.4118227  44.5696051   7.4772004  66.8678655
  43.9223966   8.1761954  66.7743132  45.3397066   7.9108148  67.2354904
  44.1396669  24.4412530  54.0399549  44.3148425  23.9700573  54.8545172
  43.4529457  25.0678296  54.2680810  39.0697976  14.1252667  65.6115432
  38.9317774  13.3932905  66.2126971  39.9802900  14.0361567  65.3299619
  48.0312924  16.0641071  50.3599910  47.4142095  15.3387899  50.2632963
  47.5629412  16.8250431  50.0166984  40.4109211  10.8237844  66.9194751
  39.8746568  10.3728582  67.5716347  39.8225919  10.9583753  66.1765215
  39.8211470  10.2826495  49.4821214  38.9440936  10.1615296  49.1183461
  40.2969223   9.4912573  49.2300103  31.3413610  15.0703655  59.5762722
  32.0284650  14.7565385  58.9883737  31.1861739  15.9745020  59.3029973
  36.1448332   9.9593851  64.0047745  36.0606521   9.3519521  63.2698155
  35.3231039  10.4502870  64.0057242  46.3172046   8.4447415  59.3717940
  46.8140746   7.6917377  59.0519011  45.5459028   8.4811732  58.8061150
  54.1701803  14.1487781  61.0136232  54.1591680  15.0312496  60.6430165
  53.3019183  13.7959331  60.8190769  42.9007015  10.5864798  59.0989625
  42.5304802  10.0335838  59.7870531  43.3966107   9.9822931  58.5464625
  50.7874378  13.0436421  57.4806398  51.2534830  13.8764413  57.4066701
  51.2381879  12.5781403  58.1851656  48.8550609  19.3880243  54.4792550
  49.1310453  19.2736837  55.3886424  47.9855108  18.9897728  54.4404723
  48.7591041   5.4117008  61.5197299  47.8454121   5.6421235  61.6879506
  49.1884142   5.4955453  62.3711332  45.8246839  22.5634779  55.3840412
  46.3534605  22.0527233  54.7710574  46.0875058  22.2477309  56.2485945
  30.9181586  13.1504248  61.8480189  30.9565686  12.6167839  62.6417307
  30.4121879  12.6239454  61.2291166  38.2972348   7.9968789  65.3442731
  38.3613675   8.8583620  64.9320129  38.2339469   7.3842790  64.6115090
  37.7724621  10.0691921  68.9915765  38.3996660   9.6868999  69.6053290
  36.9152540   9.8506123  69.3571458  34.5490164  11.8768350  54.9234120
  34.8443605  10.9679029  54.8701174  33.6478200  11.8556090  54.6015123
  38.0784411   9.9524347  60.9061669  37.3570997  10.5660315  60.7669142
  38.8677667  10.4882112  60.8278315  40.8810724   7.2878773  67.1802321
  41.4045126   7.5341070  67.9428630  40.6623058   8.1198808  66.7605458
  36.2778005   9.5582448  55.0473445  35.9490711   8.6779827  54.8648551
  36.6317376   9.5030117  55.9349835  39.3919828   9.8455418  55.4148923
  39.7315901  10.3741339  54.6927531  39.8391949  10.1835824  56.1907490
  42.0863269   8.2292469  64.8651991  41.7460090   7.4300282  65.2672671
  41.3802276   8.5294179  64.2928824  42.7379741   5.3141781  63.3179314
  43.5605810   4.8402259  63.1958204  42.9817805   6.0932265  63.8178000
  41.3787976   8.3430039  53.6142216  42.0996338   8.7211292  53.1105933
  40.7553280   9.0618916  53.7177194  45.5219099   9.0475188  54.5500548
  45.7382713   9.9299826  54.2489376  45.0413166   8.6561402  53.8206190
  42.1214703   8.9963450  61.1752182  42.1076272   8.1004543  60.8384480
  42.8387131   9.0034113  61.8090468  43.9740833   9.4300790  63.2205310
  43.7158611  10.3517860  63.2189640  43.4425874   9.0331224  63.9105774
  48.9187022  22.5351577  55.9995395  49.0923900  21.9697999  55.2469248
  49.4115913  23.3352472  55.8174885  34.7363982  14.5466246  64.0658954
  34.1917450  15.3226054  64.1979228  35.6143332  14.8937051  63.9078075
  41.5251599   7.8777830  56.4439752  41.6467510   6.9494476  56.6430640
  41.2353641   7.8916516  55.5318068  44.3942789   5.5632740  59.5806472
  44.4164486   5.6272073  58.6258452  44.8110848   4.7237249  59.7746978
  49.9062195  21.8518341  53.0992293  50.6013099  22.4725034  53.3179608
  50.2485345  21.0013693  53.3744671  35.5230004  13.6736142  66.9589111
  34.7811740  13.8218778  67.5453741  35.2022748  13.9344408  66.0955860
  34.1695223  19.4787897  59.9488439  33.3327131  19.0510072  59.7672440
  34.1418868  19.6720341  60.8859230  41.0092678   9.3909827  70.6529685
  41.0580834  10.2671950  70.2707455  41.5515192   8.8487220  70.0801328
  40.4981658  19.4631963  54.5355640  40.6469778  20.1467427  53.8822312
  41.3048101  19.4437053  55.0505095  43.2391967  10.1441200  67.4076044
  42.3695276  10.4374766  67.1358632  43.4751447  10.7281645  68.1283307
  38.2534291  15.4897140  55.5416708  38.0080333  14.5859470  55.7396919
  38.4230205  15.4914291  54.5996186  45.9431001   6.3620817  64.9241464
  46.4612944   7.0981844  64.5987953  45.5886133   6.6684810  65.7588223
  37.5229938  11.2225498  53.0402870  36.8299183  11.2969853  52.3842906
  37.2781690  10.4585841  53.5624387  46.1943595   2.7821099  60.4442361
  46.4745348   2.1144288  61.0702787  46.9794202   2.9750195  59.9317024
  43.9977063  21.9580093  52.0067387  43.4251030  22.5770280  51.5537859
  44.5709857  22.5079455  52.5407309  50.0652453  11.2038733  64.1913936
  51.0169876  11.3036831  64.2126160  49.8955903  10.4117002  64.7012020
  48.0866833   8.2894316  64.3773337  47.4916765   8.5699329  63.6819825
  47.8016529   8.7788217  65.1490078  47.2174323  22.2417243  53.1375969
  48.1504996  22.1762805  53.3408845  47.1297536  23.0773510  52.6790502
  49.8462340  21.5583114  50.0979917  49.7675971  21.2242977  50.9915675
  50.6672006  22.0504881  50.0971389  44.3823862  13.2940906  49.3483439
  45.3282966  13.1647114  49.4171857  44.0038107  12.5555568  49.8252868
  52.6935019  11.2155896  63.3514519  52.1774068  10.4314353  63.1644447
  53.5774968  10.8874613  63.5161038  50.3545746   4.9596912  59.3110331
  50.1570567   4.6512000  60.1953663  50.9645452   5.6858551  59.4408261
  42.5666779  11.2190882  49.2838325  41.6598234  10.9223995  49.3601038
  42.8442760  10.9220700  48.4172611  33.4844719  12.5397246  59.7337371
  33.1647504  11.6862554  59.4411745  32.9378147  12.7545824  60.4895338
  37.2624627  15.2559687  63.4506878  37.4810637  16.1876794  63.4694911
  37.6750401  14.8967661  64.2361681  44.1828845   5.7627772  55.4382566
  43.3729573   5.4174857  55.8137812  44.8713262   5.4535316  56.0270178
  46.1119393   4.8405819  57.0606863  46.6650431   5.2601272  57.7196886
  46.3489479   3.9141567  57.1029819  42.1352492  10.8292892  72.8409626
  42.0349219  11.7787249  72.7721718  41.9174034  10.5011131  71.9685697
  41.3365563   8.0777817  49.4250304  42.1984727   8.4032716  49.6846121
  41.5215908   7.2909313  48.9123370  33.3532979  16.1600157  61.7030493
  32.6596451  15.7454110  61.1900447  34.1005970  16.2020694  61.1063912
  49.4898200   6.9506344  56.5685527  48.9096869   7.6091148  56.1863579
  49.2234133   6.1283688  56.1572944  47.9401766   6.3511402  58.7706847
  48.4401545   6.4627936  57.9621166  48.5837374   6.0472454  59.4107656
  41.9983762  14.2590031  71.6574688  41.5150844  15.0590391  71.8638577
  42.0844701  14.2697976  70.7042132  38.5156482  16.7195682  66.2613920
  39.3349371  17.2139761  66.2848757  38.7893289  15.8027650  66.2331487
  48.2723078   9.1106434  55.6241875  47.3848933   9.3956085  55.4062070
  48.6877067   8.9500198  54.7769152  51.6237614   9.1352955  59.3396214
  52.3998004   9.6249408  59.6120831  50.8985748   9.5611009  59.7968084
  54.0610173   9.8480574  60.3970155  54.6554664   9.6076310  59.6863463
  54.1336756   9.1287705  61.0243691  47.4166291  18.8751109  49.7189895
  48.1202142  19.0801111  50.3347551  46.6928940  19.4427871  49.9838979
  52.0568908  10.4150702  56.6642285  51.8005842  10.0147338  57.4950492
  51.4321776  11.1294496  56.5392424  56.3681245  13.1546775  59.1713576
  55.8080803  13.2239965  59.9445138  55.7624749  12.9787760  58.4513072
  49.3252989  19.3133638  51.7688355  50.1598593  18.8814837  51.5865830
  49.1637332  19.1415652  52.6965250  48.9798881  15.8165751  53.1344694
  48.9247685  15.6510023  52.1933139  48.3544936  16.5241784  53.2906884
  33.7691396  11.0533816  66.9606117  34.4150260  10.5432770  67.4493342
  33.5608547  11.7902497  67.5349542  42.2895006   5.3173860  52.7130013
  42.2773676   6.2615700  52.8698284  43.1818428   5.1344006  52.4189474
  46.1047126   1.9116637  56.9675950  45.3379522   1.3575124  57.1132632
  46.5157831   1.9838506  57.8290101  38.1088887   8.2001433  71.0581131
  38.9720349   7.8438238  71.2684455  37.5354298   7.8615328  71.7456535
  52.4635250  28.5518965  51.1321997  52.7160770  28.0300486  50.3705460
  51.5259809  28.3885110  51.2348680  52.1831538  30.4547071  53.3346372
  52.0667796  29.7791974  54.0027456  52.2933798  29.9679445  52.5178525
  54.1668566  24.9447117  52.0354409  54.3342969  25.8127354  52.4024880
  53.9765735  25.1074399  51.1115699  54.1457787  27.4004775  53.0201076
  54.0257412  27.8461826  53.8586557  53.4510376  27.7490093  52.4614614
  68.7904420  30.6577167  59.7142028  68.0368128  30.0884565  59.5586032
  68.9251961  30.6239832  60.6612663  57.4945794  29.0429743  52.4268076
  56.9792418  29.8134347  52.6656463  57.2223103  28.3694879  53.0501137
  50.7866844  25.7671185  52.2823308  49.9504156  26.1045872  52.6032582
  50.6471614  25.6320165  51.3450445  53.8731130  30.8927268  48.9055784
  52.9658191  30.6616522  49.1046933  54.3702162  30.0964888  49.0929766
  55.0519363  30.9939863  53.4279774  54.1430582  30.7098896  53.5252244
  55.0814447  31.4138942  52.5683081  59.3283177  18.3114691  59.0213378
  59.6342054  17.4512054  58.7339293  60.0535782  18.9032311  58.8212372
  54.7495451  32.5348607  50.7667853  54.3114881  31.8184466  50.3073490
  55.4905892  32.7624722  50.2052944  48.1153759  28.2409411  55.0935928
  47.1851347  28.1793867  55.3105891  48.2111231  27.7185364  54.2972570
  58.8706678  31.3932989  50.3599910  58.2535849  30.6679817  50.2632963
  58.4023167  32.1542349  50.0166984  50.6605224  25.6118413  49.4821214
  49.7834691  25.4907214  49.1183461  51.1362977  24.8204491  49.2300103
  45.3883918  27.2060268  54.9234120  45.6837359  26.2970946  54.8701174
  44.4871954  27.1848008  54.6015123  47.1171760  24.8874366  55.0473445
  46.7884466  24.0071745  54.8648551  47.4711131  24.8322034  55.9349835
  50.2313583  25.1747336  55.4148923  50.5709655  25.7033257  54.6927531
  50.6785703  25.5127742  56.1907490  52.2181730  23.6721957  53.6142216
  52.9390093  24.0503210  53.1105933  51.5947034  24.3910834  53.7177194
  56.3612853  24.3767106  54.5500548  56.5776467  25.2591744  54.2489376
  55.8806920  23.9853320  53.8206190  65.6120168  30.6279918  57.6185695
  66.0551314  29.8787243  57.2204818  64.7346678  30.6190054  57.2359427
  48.3623693  26.5517415  53.0402870  47.6692938  26.6261770  52.3842906
  48.1175445  25.7877759  53.5624387  57.0337349  18.1113017  60.4442361
  57.3139103  17.4436206  61.0702787  57.8187956  18.3042112  59.9317024
  60.6856094  36.8875031  50.0979917  60.6069726  36.5534895  50.9915675
  61.5065761  37.3796799  50.0971389  55.2217616  28.6232823  49.3483439
  56.1676721  28.4939032  49.4171857  54.8431861  27.8847485  49.8252868
  61.1939501  20.2888830  59.3110331  60.9964322  19.9803918  60.1953663
  61.8039206  21.0150468  59.4408261  69.2010835  30.8152777  62.4462272
  69.9314224  30.5538065  63.0069976  68.5917781  30.0781499  62.4864340
  67.2826132  28.9560640  63.0436723  66.5559296  28.8216605  62.4353215
  66.8673419  29.2637469  63.8493441  53.4060533  26.5482800  49.2838325
  52.4991989  26.2515913  49.3601038  53.6836514  26.2512618  48.4172611
  56.9513147  20.1697736  57.0606863  57.5044186  20.5893190  57.7196886
  57.1883234  19.2433484  57.1029819  52.1759318  23.4069735  49.4250304
  53.0378482  23.7324633  49.6846121  52.3609662  22.6201231  48.9123370
  60.3291954  22.2798262  56.5685527  59.7490623  22.9383066  56.1863579
  60.0627887  21.4575606  56.1572944  58.7795521  21.6803319  58.7706847
  59.2795299  21.7919854  57.9621166  59.4231129  21.3764372  59.4107656
  58.2560046  34.2043027  49.7189895  58.9595896  34.4093029  50.3347551
  57.5322695  34.7719788  49.9838979  67.2075000  28.4838693  59.1713576
  66.6474558  28.5531882  59.9445138  66.6018503  28.3079678  58.4513072
  59.8192636  31.1457669  53.1344694  59.7641439  30.9801941  52.1933139
  59.1938691  31.8533702  53.2906884  53.1288761  20.6465778  52.7130013
  53.1167431  21.5907618  52.8698284  54.0212183  20.4635924  52.4189474
  63.3029004  43.8810882  51.1321997  63.5554525  43.3592404  50.3705460
  62.3653563  43.7177028  51.2348680  68.3472287  42.8846661  58.9396740
  69.1335376  42.4666084  58.5887157  68.6110991  43.7892753  59.1078388
  71.1634798  41.2538554  61.3817677  70.2551675  41.1853963  61.0876438
  71.1122393  41.7310499  62.2099503  64.9851542  42.7296693  53.0201076
  64.8651167  43.1753743  53.8586557  64.2904130  43.0782010  52.4614614
  68.0272583  39.3776202  62.0971271  67.1657062  39.6757455  62.3888009
  68.0535017  39.5946601  61.1652304  68.3339549  44.3721660  52.4268076
  67.8186172  45.1426265  52.6656463  68.0616857  43.6986797  53.0501137
  68.1225852  42.2448752  54.2527857  67.8175988  42.5594902  55.1038000
  69.0756294  42.3230172  54.2955190  70.3570589  44.9532369  59.0691799
  70.8702471  45.5862361  59.5713509  71.0071813  44.3533564  58.7035159
  66.8351420  42.4281824  61.3150140  65.9173981  42.6496771  61.1571828
  67.2511563  42.5028135  60.4561847  67.6186467  43.8273240  56.4452820
  68.3658286  44.3394637  56.1359942  67.8878057  43.5057293  57.3057213
  70.0665305  40.8630356  58.4271609  69.3288061  40.3507743  58.7581852
  70.3192078  40.4230738  57.6154886  70.1676932  33.6406608  59.0213378
  70.4735809  32.7803972  58.7339293  70.8929537  34.2324229  58.8212372
  67.9959555  39.1031250  59.3717940  68.4928255  38.3501213  59.0519011
  67.2246537  39.1395567  58.8061150  70.4378550  36.0700844  61.5197299
  69.5241630  36.3005071  61.6879506  70.8671651  36.1539288  62.3711332
  67.8731104  33.4404934  60.4442361  68.1532857  32.7728124  61.0702787
  68.6581711  33.6334030  59.9317024  69.7654341  38.9478152  64.3773337
  69.1704274  39.2283164  63.6819825  69.4804038  39.4372053  65.1490078
  72.0333255  35.6180747  59.3110331  71.8358076  35.3095835  60.1953663
  72.6432961  36.3442386  59.4408261  64.2454288  41.8774718  49.2838325
  63.3385743  41.5807830  49.3601038  64.5230269  41.5804536  48.4172611
  67.7906902  35.4989654  57.0606863  68.3437940  35.9185107  57.7196886
  68.0276988  34.5725402  57.1029819  63.0153072  38.7361653  49.4250304
  63.8772236  39.0616551  49.6846121  63.2003417  37.9493149  48.9123370
  71.1685709  37.6090179  56.5685527  70.5884378  38.2674983  56.1863579
  70.9021642  36.7867524  56.1572944  69.6189275  37.0095237  58.7706847
  70.1189054  37.1211771  57.9621166  70.2624883  36.7056290  59.4107656
  69.9510587  39.7690270  55.6241875  69.0636442  40.0539920  55.4062070
  70.3664576  39.6084033  54.7769152  73.7356417  41.0734537  56.6642285
  73.4793351  40.6731173  57.4950492  73.1109285  41.7878331  56.5392424
  67.7834635  32.5700472  56.9675950  67.0167031  32.0158959  57.1132632
  68.1945340  32.6422341  57.8290101  77.8800854  65.9620997  53.1016412
  77.2288833  66.5475077  52.7150426  78.6745216  66.4927192  53.1611450
  74.1422759  59.2102800  51.1321997  74.3948279  58.6884321  50.3705460
  73.2047318  59.0468946  51.2348680  79.3576119  63.6511429  53.6385397
  78.7221952  63.7246055  54.3506301  79.0273525  64.2405028  52.9604476
  75.8456075  55.6030953  52.0354409  76.0130478  56.4711189  52.4024880
  75.6553244  55.7658235  51.1115699  75.8245296  58.0588610  53.0201076
  75.7044921  58.5045661  53.8586557  75.1297884  58.4073928  52.4614614
  90.4691929  61.3161003  59.7142028  89.7155637  60.7468401  59.5586032
  90.6039470  61.2823667  60.6612663  79.1733303  59.7013578  52.4268076
  78.6579927  60.4718183  52.6656463  78.9010612  59.0278714  53.0501137
  84.1467578  62.4545933  54.3621249  83.3697020  62.1157092  53.9176411
  84.8259059  62.4598556  53.6876214  75.5518639  61.5511104  48.9055784
  74.6445700  61.3200357  49.1046933  76.0489671  60.7548723  49.0929766
  78.4586717  70.2608611  51.8252470  77.7848416  70.5640308  52.4337428
  78.8452539  71.0637691  51.4757927  76.7306872  61.6523699  53.4279774
  75.8218091  61.3682731  53.5252244  76.7601956  62.0722777  52.5683081
  76.4282960  63.1932442  50.7667853  75.9902390  62.4768301  50.3073490
  77.1693401  63.4208557  50.2052944  80.5494187  62.0516824  50.3599910
  79.9323358  61.3263652  50.2632963  80.0810676  62.8126184  50.0166984
  72.3392733  56.2702248  49.4821214  71.4622200  56.1491049  49.1183461
  72.8150486  55.4788326  49.2300103  86.6883067  60.1363534  61.0136232
  86.6772943  61.0188249  60.6430165  85.8200446  59.7835084  60.8190769
  81.3731873  65.3755996  54.4792550  81.6491717  65.2612590  55.3886424
  80.5036371  64.9773481  54.4404723  87.2907677  61.2863753  57.6185695
  87.7338823  60.5371078  57.2204818  86.4134187  61.2773889  57.2359427
  82.4243458  67.8394094  53.0992293  83.1194363  68.4600787  53.3179608
  82.7666608  66.9889446  53.3744671  84.3234881  65.2893800  54.6279624
  84.8486205  65.6281073  53.9028944  84.2357234  64.3540815  54.4442759
  86.8340542  62.7568991  60.0108142  87.6687433  63.1958795  60.1745703
  86.9699670  62.2807644  59.1916388  76.5158327  67.9455846  52.0067387
  75.9432294  68.5646033  51.5537859  77.0891120  68.4955208  52.5407309
  79.7355586  68.2292996  53.1375969  80.6686260  68.1638558  53.3408845
  79.6478799  69.0649263  52.6790502  82.3643603  67.5458867  50.0979917
  82.2857235  67.2118730  50.9915675  83.1853270  68.0380634  50.0971389
  76.9005125  59.2816659  49.3483439  77.8464230  59.1522867  49.4171857
  76.5219370  58.5431321  49.8252868  90.8798344  61.4736613  62.4462272
  91.6101733  61.2121901  63.0069976  90.2705290  60.7365335  62.4864340
  88.9613641  59.6144475  63.0436723  88.2346805  59.4800440  62.4353215
  88.5460928  59.9221304  63.8493441  75.0848042  57.2066635  49.2838325
  74.1779498  56.9099748  49.3601038  75.3624023  56.9096453  48.4172611
  73.8546827  54.0653570  49.4250304  74.7165991  54.3908469  49.6846121
  74.0397171  53.2785066  48.9123370  86.5791436  55.8356327  60.3970155
  87.1735927  55.5952063  59.6863463  86.6518020  55.1163458  61.0243691
  79.9347555  64.8626862  49.7189895  80.6383405  65.0676864  50.3347551
  79.2110204  65.4303624  49.9838979  88.8862509  59.1422528  59.1713576
  88.3262067  59.2115718  59.9445138  88.2806012  58.9663513  58.4513072
  81.8434252  65.3009391  51.7688355  82.6779856  64.8690590  51.5865830
  81.6818595  65.1291405  52.6965250  81.4980144  61.8041504  53.1344694
  81.4428948  61.6385776  52.1933139  80.8726200  62.5117537  53.2906884
  92.9493643  67.1927303  64.3024327  92.6176968  68.0622714  64.0785542
  92.3539257  66.8763587  64.9818357  92.8422307  71.9122390  61.3817677
  91.9339184  71.8437798  61.0876438  92.7909902  72.3894335  62.2099503
  84.4245943  86.1584170  56.6691207  84.3469972  87.1091995  56.7479688
  83.8207586  85.8130042  57.3266134  86.9163172  73.3312035  69.3252574
  86.1396507  73.8905955  69.3155439  87.5553736  73.8168818  69.8467444
  94.7083953  70.1138828  63.1595551  94.0658333  70.4071361  62.5135346
  94.2038882  69.9991748  63.9648748  86.9995954  73.2199236  64.8576260
  87.8457150  73.6438649  65.0010909  86.9394592  72.5632860  65.5514823
  90.1495400  70.8803604  66.5157433  89.9056332  71.6345665  65.9791709
  90.4255330  71.2588952  67.3504681  89.7060092  70.0360037  62.0971271
  88.8444571  70.3341291  62.3888009  89.7322526  70.2530436  61.1652304
  86.1019612  69.0115782  69.6431359  86.8429326  69.6122935  69.5635821
  86.3337535  68.2693419  69.0849402  90.0476775  65.0396885  63.9195641
  89.7041045  65.9298526  63.8434751  90.4155738  64.8498542  63.0565226
  87.5974169  69.8755196  57.4853314  86.7415765  69.4862047  57.3058953
  88.0101121  69.9547157  56.6253100  89.1273316  67.4101540  61.8844874
  88.6238111  67.3731675  61.0712679  89.4203922  68.3194282  61.9441531
  85.3716201  67.4940269  60.8911056  86.2369198  67.2983078  60.5316945
  85.4393710  67.2650621  61.8180412  85.2801188  66.5983726  56.9902492
  84.6265601  66.2832743  56.3659107  85.2381662  65.9759467  57.7162315
  91.7452814  71.5214192  58.4271609  91.0075570  71.0091578  58.7581852
  91.9979587  71.0814573  57.6154886  91.8464441  64.2990444  59.0213378
  92.1523318  63.4387807  58.7339293  92.5717046  64.8908064  58.8212372
  89.6552092  73.6763121  66.1194842  90.0101480  73.9034594  66.9789308
  90.3024223  74.0081498  65.4972097  87.9271069  68.7939675  66.8678655
  87.2798984  69.4929625  66.7743132  88.6972084  69.2275819  67.2354904
  91.3349867  79.0588527  69.9429209  91.1835373  78.8299079  69.0259292
  91.3254546  80.0159129  69.9560554  83.1786488  71.5994166  49.4821214
  82.3015954  71.4782967  49.1183461  83.6544241  70.8080244  49.2300103
  89.6747064  69.7615086  59.3717940  90.1715764  69.0085048  59.0519011
  88.9034046  69.7979402  58.8061150  86.2582033  71.9032469  59.0989625
  85.8879820  71.3503509  59.7870531  86.7541125  71.2990602  58.5464625
  92.1166059  66.7284679  61.5197299  91.2029139  66.9588906  61.6879506
  92.5459160  66.8123123  62.3711332  84.2385742  68.6046444  67.1802321
  84.7620144  68.8508741  67.9428630  84.0198076  69.4366479  66.7605458
  86.0954759  66.6309452  63.3179314  86.9180828  66.1569930  63.1958204
  86.3392823  67.4099935  63.8178000  84.7362994  69.6597710  53.6142216
  85.4571356  70.0378963  53.1105933  84.1128298  70.3786587  53.7177194
  88.8794116  70.3642859  54.5500548  89.0957731  71.2467497  54.2489376
  88.3988184  69.9729073  53.8206190  87.3315851  70.7468461  63.2205310
  87.0733629  71.6685531  63.2189640  86.8000892  70.3498895  63.9105774
  87.7517807  66.8800411  59.5806472  87.7739504  66.9439744  58.6258452
  88.1685866  66.0404920  59.7746978  94.8522542  81.2518621  69.9330822
  94.0618086  81.2342760  69.3935321  94.6155896  81.7906915  70.6879859
  94.9720417  78.1011088  67.2463551  95.0218422  77.9361095  68.1879073
  94.8634340  77.2338347  66.8561431  92.2624179  74.0842016  68.5622857
  93.1634042  73.9448480  68.2706855  92.3372154  74.2496470  69.5021035
  86.5966985  71.4608870  67.4076044  85.7270294  71.7542436  67.1358632
  86.8326465  72.0449315  68.1283307  96.4738614  80.5208029  67.4905572
  96.1823422  80.8838010  68.3269033  95.8610745  79.8075037  67.3118904
  89.3006018  67.6788487  64.9241464  89.8187962  68.4149514  64.5987953
  88.9461151  67.9852481  65.7588223  89.5518613  64.0988770  60.4442361
  89.8320366  63.4311959  61.0702787  90.3369220  64.2917865  59.9317024
  93.4227471  72.5206404  64.1913936  94.3744894  72.6204502  64.2126160
  93.2530921  71.7284672  64.7012020  91.4441850  69.6061987  64.3773337
  90.8491783  69.8867000  63.6819825  91.1591547  70.0955888  65.1490078
  93.2037358  82.8750784  50.0979917  93.1250989  82.5410648  50.9915675
  94.0247024  83.3672552  50.0971389  96.0510037  72.5323567  63.3514519
  95.5349086  71.7482024  63.1644447  96.9349986  72.2042284  63.5161038
  93.7120764  66.2764583  59.3110331  93.5145585  65.9679671  60.1953663
  94.3220470  67.0026221  59.4408261 101.7192099  76.8028530  62.4462272
 102.4495487  76.5413818  63.0069976 101.1099044  76.0657252  62.4864340
  87.5403863  67.0795443  55.4382566  86.7304591  66.7342528  55.8137812
  88.2288279  66.7702986  56.0270178  89.4694411  66.1573489  57.0606863
  90.0225449  66.5768943  57.7196886  89.7064497  65.2309238  57.1029819
  84.6940581  69.3945488  49.4250304  85.5559745  69.7200386  49.6846121
  84.8790926  68.6076984  48.9123370  92.8473218  68.2674015  56.5685527
  92.2671887  68.9258819  56.1863579  92.5809151  67.4451359  56.1572944
  91.2976784  67.6679072  58.7706847  91.7976563  67.7795607  57.9621166
  91.9412392  67.3640125  59.4107656  91.6298096  70.4274105  55.6241875
  90.7423951  70.7123756  55.4062070  92.0452085  70.2667868  54.7769152
  94.9812632  70.4520626  59.3396214  95.7573022  70.9417078  59.6120831
  94.2560766  70.8778680  59.7968084  97.4185191  71.1648245  60.3970155
  98.0129681  70.9243981  59.6863463  97.4911774  70.4455376  61.0243691
  90.7741309  80.1918780  49.7189895  91.4777160  80.3968782  50.3347551
  90.0503958  80.7595542  49.9838979  92.6828007  80.6301309  51.7688355
  93.5173611  80.1982507  51.5865830  92.5212350  80.4583323  52.6965250
  85.6470024  66.6341531  52.7130013  85.6348694  67.5783371  52.8698284
  86.5393446  66.4511677  52.4189474  89.4622144  63.2284308  56.9675950
  88.6954540  62.6742794  57.1132632  89.8732849  63.3006177  57.8290101
 101.3112282  91.1470960  61.8643532 101.9490692  91.0277707  61.1606872
 101.1933125  92.0951804  61.9231484  98.6021771  92.2533240  67.7591262
  98.5910412  91.8586038  66.8871766  98.7642411  91.5199312  68.3525034
  99.5588363  96.6204832  53.1016412  98.9076342  97.2058913  52.7150426
 100.3532725  97.1511027  53.1611450  93.4843990  93.7093969  53.5003547
  94.2574866  93.1622956  53.3616423  93.8369389  94.5738219  53.7118008
  95.3229032  95.0370352  66.7070446  95.0318898  95.9415982  66.5917112
  95.9586017  95.0786879  67.4214516  96.2485239  92.4147200  63.2971806
  96.8448811  92.1903222  62.5828769  96.3060211  91.6731946  63.8997254
  95.8210268  89.8686635  51.1321997  96.0735788  89.3468157  50.3705460
  94.8834827  89.7052781  51.2348680 100.8653550  88.8722414  58.9396740
 101.6516640  88.4541837  58.5887157 101.1292255  89.7768506  59.1078388
 101.0363628  94.3095264  53.6385397 100.4009461  94.3829891  54.3506301
 100.7061034  94.8988863  52.9604476 106.2661978  88.8097647  59.8429718
 106.9987149  88.2396864  60.0767548 105.5101333  88.4219247  60.2836224
  95.5406556  91.7714741  53.3346372  95.4242814  91.0959645  54.0027456
  95.6508816  91.2847115  52.5178525  97.8838097  91.2324888  57.0393061
  97.5196304  90.7055509  57.7505982  98.7405213  90.8423358  56.8659546
 103.7887398  82.5219221  64.3024327 103.4570723  83.3914632  64.0785542
 103.1933011  82.2055505  64.9818357  97.5243584  86.2614788  52.0354409
  97.6917987  87.1295025  52.4024880  97.3340753  86.4242070  51.1115699
 100.2818917  94.7231767  63.7020240  99.9819640  95.6256806  63.5936047
  99.9369977  94.4563950  64.5541393 103.6816061  87.2414307  61.3817677
 102.7732939  87.1729716  61.0876438 103.6303657  87.7186252  62.2099503
  95.2639697 101.4876087  56.6691207  95.1863727 102.4383913  56.7479688
  94.6601341 101.1421960  57.3266134  97.7556927  88.6603953  69.3252574
  96.9790261  89.2197873  69.3155439  98.3947490  89.1460736  69.8467444
 105.5477708  85.4430746  63.1595551 104.9052088  85.7363279  62.5135346
 105.0432636  85.3283666  63.9648748 103.2017871  89.1893919  53.8481410
 104.1135727  89.4221306  53.6729108 102.6927518  89.7730963  53.2856489
  96.0103299  91.4689406  68.8870541  96.7517984  92.0074450  68.6105365
  95.3040285  92.0955695  69.0442093 101.4858639  93.6118547  67.4842703
 101.8941995  93.1700957  66.7397335 100.7635900  93.0371174  67.7376896
 101.8087454  94.1719737  61.2394992 101.1796316  94.3365451  60.5371060
 101.4213116  94.5861347  62.0105956 105.6876685  95.1074175  58.5939356
 105.0027724  95.4873077  58.0436389 105.7720535  95.7169502  59.3271303
 100.9889154  86.2095522  66.5157433 100.7450086  86.9637582  65.9791709
 101.2649085  86.5880869  67.3504681 102.9427617  92.7534134  65.1934699
 103.1544512  93.3965894  64.5169080 102.8957365  91.9196451  64.7256629
  94.7464663  88.6229054  69.6885851  94.1163324  89.3045335  69.9221248
  94.6400751  88.5112136  68.7438990 104.0573445  95.6306090  63.3657056
 104.8790889  95.2286277  63.0839738 104.0535848  95.5274324  64.3173172
  97.8230048  95.1790133  65.5217767  97.8874481  95.6410540  66.3575939
  97.1140972  94.5487498  65.6500077 112.1479438  91.9744838  59.7142028
 111.3943146  91.4052236  59.5586032 112.2826979  91.9407503  60.6612663
  97.5378066  96.8458240  55.3896747  97.4023741  97.6909776  55.8181595
  98.0787879  97.0477518  54.6262681  94.0245406  82.9249820  72.0511102
  93.6312351  82.3716019  72.7258747  94.8411546  83.2360399  72.4417620
  96.9413367  84.3407699  69.6431359  97.6823080  84.9414852  69.5635821
  97.1731290  83.5985337  69.0849402  92.0854705  89.5264067  67.9209589
  91.9708220  88.6249324  68.2216688  91.2299222  89.7727763  67.5694405
  99.1646542  97.4681807  69.5197089  98.7210397  96.6818185  69.2017994
  99.8263756  97.6560957  68.8540980  93.9233664  98.9977608  64.0457768
  94.4741089  98.8694672  63.2734762  93.0845140  99.2972498  63.6952661
 101.2627781  97.7484607  67.5478491 101.2446256  98.5693488  67.0558760
 102.1847701  97.6238682  67.7728632  97.7200835  95.2628736  68.3901999
  98.2529172  94.5017024  68.1601307  97.1914916  94.9702388  69.1326153
 100.8870530  80.3688802  63.9195641 100.5434799  81.2590444  63.8434751
 101.2549492  80.1790460  63.0565226 100.8520812  90.3597413  52.4268076
 100.3367436  91.1302018  52.6656463 100.5798121  89.6862550  53.0501137
 105.8255087  93.1129768  54.3621249 105.0484529  92.7740928  53.9176411
 106.5046568  93.1182391  53.6876214 100.6407116  88.2324505  54.2527857
 100.3357251  88.5470655  55.1038000 101.5937558  88.3105925  54.2955190
  99.0853547  94.3914729  55.9020811  98.5574909  93.6567488  55.5894048
  98.5841050  95.1689405  55.6560779 104.0646393  92.5863749  61.0187857
 103.4070068  93.2763011  61.1067986 104.8686793  92.9760181  61.3621844
 102.8751852  90.9408122  59.0691799 103.3883734  91.5738114  59.5713509
 103.5253076  90.3409317  58.7035159  94.1441862  87.0838856  52.2823308
  93.3079174  87.4213543  52.6032582  94.0046632  86.9487836  51.3450445
  97.2306148  92.2094939  48.9055784  96.3233209  91.9784193  49.1046933
  97.7277180  91.4132558  49.0929766 100.1374226 100.9192446  51.8252470
  99.4635925 101.2224143  52.4337428 100.5240048 101.7221527  51.4757927
 100.1367731  89.8148993  56.4452820 100.8839550  90.3270390  56.1359942
 100.4059320  89.4933046  57.3057213  98.4094381  92.3107534  53.4279774
  97.5005600  92.0266567  53.5252244  98.4389465  92.7306612  52.5683081
 103.6413648  95.9214123  57.1970942 103.1875976  95.0805033  57.2536132
 103.0107615  96.5575522  57.5345722 102.5846568  86.8506109  58.4271609
 101.8469325  86.3383496  58.7581852 102.8373342  86.4106491  57.6154886
 102.0846588  97.7590620  58.1320760 102.3769562  98.3195677  57.4133125
 102.5945208  98.0519181  58.8873919 102.6858195  79.6282361  59.0213378
 102.9917072  78.7679725  58.7339293 103.4110800  80.2199982  58.8212372
  98.1070469  93.8516278  50.7667853  97.6689899  93.1352137  50.3073490
  98.8480910  94.0792392  50.2052944 100.4945847  89.0055039  66.1194842
 100.8495234  89.2326512  66.9789308 101.1417978  89.3373416  65.4972097
 106.2243584  92.1273475  56.8244171 106.0861482  92.3175071  55.8965360
 105.8679802  92.8892857  57.2812222 106.2512963  94.1950002  61.8355443
 106.6849470  94.1025291  62.6838497 106.9644544  94.1707502  61.1975459
  99.9840858  97.7952096  63.3688543 100.0377880  98.3643032  64.1366259
  99.1155639  97.9653981  63.0042580 107.1128513  94.2373702  64.3688328
 107.3064403  95.1419513  64.6147603 107.0129131  93.7781121  65.2026913
  98.7664824  84.1231593  66.8678655  98.1192739  84.8221543  66.7743132
  99.5365839  84.5567737  67.2354904 102.1743621  94.3880445  69.9429209
 102.0229128  94.1590997  69.0259292 102.1648301  95.3451046  69.9560554
  98.9428958  91.9612358  64.9275475  99.8721018  92.1123517  64.7544442
  98.5219988  92.0496379  64.0724122  97.7417290  95.9863022  62.6974013
  97.6028375  95.6181807  63.5699951  96.9531886  96.5010662  62.5257971
  98.3365442 101.0872119  54.0399549  98.5117197 100.6160162  54.8545172
  97.6498230 101.7137885  54.2680810  99.2922505  95.3644625  60.0862851
  98.9572337  95.3245395  60.9820500  98.7926450  94.6989341  59.6133261
  93.2666749  90.7712255  65.6115432  93.1286547  90.0392494  66.2126971
  94.1771672  90.6821155  65.3299619 102.2281696  92.7100659  50.3599910
 101.6110867  91.9847487  50.2632963 101.7598185  93.4710020  50.0166984
  95.8949049  90.4832214  65.0999111  96.6048668  89.8425406  65.0585730
  95.8518358  90.7345109  66.0225292 103.8835828  97.4199568  68.0205691
 103.8248374  96.7358788  67.3536274 104.2855346  98.1618558  67.5686317
  94.6077983  87.4697432  66.9194751  94.0715340  87.0188171  67.5716347
  94.0194692  87.6043341  66.1765215  92.9026527 104.2361481  60.8139409
  93.1423125 104.8680006  61.4918428  92.0595723 103.8849521  61.1004769
  94.0180242  86.9286084  49.4821214  93.1409709  86.8074884  49.1183461
  94.4937995  86.1372162  49.2300103 103.8853235  95.3839152  66.2519670
 102.9980014  95.0465073  66.3746069 104.4551786  94.6522183  66.4888436
  97.4154389 100.0440604  63.2180913  97.3424560 100.8495575  63.7300218
  96.9731782 100.2432570  62.3928935  97.2044168  99.2812374  56.7283735
  96.4211690  99.8234054  56.8221960  97.9036914  99.7986354  57.1277976
 108.3670576  90.7947369  61.0136232 108.3560452  91.6772084  60.6430165
 107.4987955  90.4418920  60.8190769  99.8753072  99.9427438  65.3739072
 100.5881044 100.5774903  65.3014974  99.3843101 100.0391304  64.5579074
 101.5970599  93.8478691  56.9456364 100.6626878  93.9680153  56.7761068
 101.7747268  92.9451157  56.6816374 104.9843151  89.6896010  57.4806398
 105.4503603  90.5224001  57.4066701 105.4350651  89.2240991  58.1851656
  94.9264986  97.6921881  66.1944643  95.6274445  98.3258364  66.3474037
  94.4560101  98.0336613  65.4340282 103.0519382  96.0339831  54.4792550
 103.3279226  95.9196426  55.3886424 102.1823880  95.6357316  54.4404723
 102.9559813  82.0576597  61.5197299 102.0422893  82.2880824  61.6879506
 103.3852915  82.1415041  62.3711332 102.7266272  90.2466489  64.0197193
 102.0737722  90.4942396  63.3649646 103.1046652  89.4330627  63.6859671
  99.6873446 100.2826182  58.1225364  99.8695840  99.4647838  58.5853116
 100.5106432 100.4993874  57.6850254 100.0215611  99.2094367  55.3840412
 100.5503378  98.6986822  54.7710574 100.2843831  98.8936897  56.2485945
  98.7753845  90.9886300  70.5063230  98.0994482  90.8880429  71.1765606
  99.5981479  90.8325514  70.9699228  93.3771359 100.2609484  58.1438188
  92.7081734 100.7455611  57.6602228  93.2384229 100.5078704  59.0581567
  97.5176628 102.2953227  64.7420846  98.0694936 102.4584849  65.5069932
  97.8582821 102.8857665  64.0700871  91.9693393  86.7151510  68.9915765
  92.5965432  86.3328587  69.6053290  91.1121312  86.4965712  69.3571458
 102.3687502  97.1214485  70.5969501 102.9127406  97.7344443  70.1024456
 101.7874347  97.6794063  71.1136514 100.6545015 100.2435203  61.7284529
 100.5296154  99.4424943  61.2195474 101.3124106 100.7381396  61.2398499
 102.7179923  98.0444223  63.3564079 101.7710259  97.9249574  63.2842405
 103.0662696  97.1566721  63.4390340  95.0779497  83.9338362  67.1802321
  95.6013899  84.1800658  67.9428630  94.8591830  84.7658397  66.7605458
  99.7226357  97.8396939  59.5568431  99.5751319  96.9113647  59.7376001
 100.5479850  97.8617030  59.0725506 103.3260478  98.6625498  60.6433304
 104.2507026  98.4568359  60.5057755 103.1575782  98.4141899  61.5522645
  99.7187871  85.6934777  54.5500548  99.9351485  86.5759415  54.2489376
  99.2381938  85.3020990  53.8206190 103.1155795  99.1811165  55.9995395
 103.2892672  98.6157588  55.2469248 103.6084686  99.9812060  55.8174885
 108.9695186  91.9447588  57.6185695 109.4126332  91.1954913  57.2204818
 108.0921696  91.9357725  57.2359427 104.1030967  98.4977930  53.0992293
 104.7981872  99.1184622  53.3179608 104.4454117  97.6473281  53.3744671
  89.7198776  90.3195731  66.9589111  88.9780512  90.4678366  67.5453741
  89.3991521  90.5803996  66.0955860 106.0022390  95.9477635  54.6279624
 106.5273714  96.2864908  53.9028944 105.9144743  95.0124651  54.4442759
  97.6642439  99.8611709  66.7569501  97.9729565  99.6160856  67.6292200
  98.4617921 100.0658347  66.2688371  97.6863051 102.0149619  58.9874877
  97.2468041 101.5225997  59.6807734  98.4371168 101.4722586  58.7466953
  95.2061451  86.0369416  70.6529685  95.2549606  86.9131538  70.2707455
  95.7483965  85.4946809  70.0801328 105.6916296  96.5810539  69.9330822
 104.9011840  96.5634678  69.3935321 105.4549651  97.1198833  70.6879859
 105.8114171  93.4303005  67.2463551 105.8612176  93.2653013  68.1879073
 105.7028095  92.5630264  66.8561431  94.6950430  96.1091551  54.5355640
  94.8438550  96.7927015  53.8822312  95.5016874  96.0896641  55.0505095
 103.1017934  89.4133933  68.5622857 104.0027797  89.2740398  68.2706855
 103.1765908  89.5788388  69.5021035  97.4360739  86.7900788  67.4076044
  96.5664049  87.0834354  67.1358632  97.6720220  87.3741233  68.1283307
 107.3132368  95.8499947  67.4905572 107.0217177  96.2129927  68.3269033
 106.7004500  95.1366955  67.3118904 108.5128051  93.4152827  60.0108142
 109.3474942  93.8542631  60.1745703 108.6487179  92.9391480  59.1916388
 105.5619557  90.9732561  65.9585630 106.0373678  91.1660208  65.1504482
 104.6385122  91.0291747  65.7129014 100.1399773  83.0080405  64.9241464
 100.6581717  83.7441432  64.5987953  99.7854906  83.3144398  65.7588223
  98.1945836  98.6039681  52.0067387  97.6219803  99.2229869  51.5537859
  98.7678629  99.1539043  52.5407309 104.2621226  87.8498322  64.1913936
 105.2138648  87.9496419  64.2126160 104.0924676  87.0576590  64.7012020
 102.2835605  84.9353905  64.3773337 101.6885537  85.2158917  63.6819825
 101.9985302  85.4247806  65.1490078 101.4143095  98.8876832  53.1375969
 102.3473769  98.8222393  53.3408845 101.3266308  99.7233098  52.6790502
 104.0431112  98.2042702  50.0979917 103.9644744  97.8702565  50.9915675
 104.8640779  98.6964470  50.0971389 106.7409303  91.0704441  63.3056235
 106.7085623  90.1320442  63.4915919 107.3509927  91.1488478  62.5722060
  98.5792634  89.9400494  49.3483439  99.5251739  89.8106702  49.4171857
  98.2006879  89.2015156  49.8252868 106.8903792  87.8615485  63.3514519
 106.3742840  87.0773941  63.1644447 107.7743740  87.5334201  63.5161038
 104.5514519  81.6056500  59.3110331 104.3539340  81.2971588  60.1953663
 105.1614224  82.3318139  59.4408261 112.5585853  92.1320448  62.4462272
 113.2889242  91.8705736  63.0069976 111.9492799  91.3949170  62.4864340
 110.6401150  90.2728311  63.0436723 109.9134314  90.1384276  62.4353215
 110.2248437  90.5805139  63.8493441  98.4631327  93.9918240  70.8084096
  99.3834336  94.1696839  71.0024143  98.4280910  93.0474286  70.6563796
  96.7635551  87.8650471  49.2838325  95.8567007  87.5683583  49.3601038
  97.0411532  87.5680289  48.4172611  96.3321265  87.4752481  72.8409626
  96.2317991  88.4246838  72.7721718  96.1142807  87.1470720  71.9685697
  95.5334336  84.7237406  49.4250304  96.3953500  85.0492304  49.6846121
  95.7184680  83.9368902  48.9123370 103.6866972  83.5965932  56.5685527
 103.1065641  84.2550736  56.1863579 103.4202905  82.7743277  56.1572944
 102.1370539  82.9970990  58.7706847 102.6370317  83.1087524  57.9621166
 102.7806147  82.6932043  59.4107656  96.1952535  90.9049620  71.6574688
  95.7119616  91.7049980  71.8638577  96.2813474  90.9157564  70.7042132
  92.7125254  93.3655270  66.2613920  93.5318143  93.8599349  66.2848757
  92.9862062  92.4487238  66.2331487 102.4691850  85.7566023  55.6241875
 101.5817705  86.0415673  55.4062070 102.8845839  85.5959786  54.7769152
 105.8206387  85.7812544  59.3396214 106.5966777  86.2708996  59.6120831
 105.0954521  86.2070598  59.7968084 108.2578945  86.4940163  60.3970155
 108.8523436  86.2535899  59.6863463 108.3305529  85.7747293  61.0243691
  90.4776101 100.3373774  60.7113320  90.3430569  99.5774175  60.1451318
  90.0608163 101.0614674  60.2442109 101.6135064  95.5210697  49.7189895
 102.3170914  95.7260700  50.3347551 100.8897713  96.0887459  49.9838979
 102.4432874  91.2720559  55.8392165 102.3868076  91.7289110  54.9999798
 102.9961217  90.5111243  55.6615008 106.2537680  87.0610290  56.6642285
 105.9974614  86.6606926  57.4950492 105.6290548  87.7754084  56.5392424
 110.5650018  89.8006364  59.1713576 110.0049576  89.8699553  59.9445138
 109.9593521  89.6247348  58.4513072  93.6345227 101.2343091  60.9231762
  93.5177611 102.1788523  60.8210453  92.8137673 100.9316652  61.3117562
 103.5221761  95.9593226  51.7688355 104.3567365  95.5274425  51.5865830
 103.3606104  95.7875240  52.6965250 103.1767653  92.4625340  53.1344694
 103.1216457  92.2969611  52.1933139 102.5513709  93.1701373  53.2906884
 100.4913561  94.7674252  72.4598257 101.3604720  94.9414904  72.0984892
 100.0120312  95.5868668  72.3373987  94.6599741 101.8871353  64.1387691
  95.5626988 101.9194963  64.4554186  94.4337111 100.9571804  64.1534027
  96.4153343 100.6402339  60.7997769  95.4648974 100.6404201  60.6862142
  96.7185829  99.8935074  60.2833804  92.3057659  84.8461021  71.0581131
  93.1689121  84.4897826  71.2684455  91.7323070  84.5074916  71.7456535
 112.1506036 106.4762878  61.8643532 112.7884446 106.3569625  61.1606872
 112.0326879 107.4243722  61.9231484 108.9595743 106.4290306  61.8005057
 108.6214254 106.3131370  60.9125591 109.8285511 106.0281471  61.7806063
 104.8182558 108.2825782  57.7901948 104.2547423 108.1915719  57.0218235
 104.7034953 107.4625687  58.2704440 109.4415526 107.5825157  67.7591262
 109.4304166 107.1877956  66.8871766 109.6036165 106.8491230  68.3525034
 102.3646990 109.7776974  60.6286168 103.1568282 109.4367798  60.2132467
 102.6043640 109.8871949  61.5488321 104.3237744 109.0385887  53.5003547
 105.0968620 108.4914874  53.3616423 104.6763143 109.9030136  53.7118008
 106.1622787 110.3662269  66.7070446 105.8712653 111.2707900  66.5917112
 106.7979771 110.4078797  67.4214516 107.0878994 107.7439118  63.2971806
 107.6842566 107.5195140  62.5828769 107.1453965 107.0023863  63.8997254
 106.6604022 105.1978553  51.1321997 106.9129543 104.6760074  50.3705460
 105.7228581 105.0344699  51.2348680 111.7047305 104.2014331  58.9396740
 112.4910394 103.7833755  58.5887157 111.9686009 105.1060424  59.1078388
 117.1055732 104.1389565  59.8429718 117.8380904 103.5688781  60.0767548
 116.3495088 103.7511165  60.2836224 106.3800311 107.1006659  53.3346372
 106.2636569 106.4251562  54.0027456 106.4902571 106.6139033  52.5178525
 108.7231852 106.5616806  57.0393061 108.3590059 106.0347427  57.7505982
 109.5798968 106.1715275  56.8659546 114.6281152  97.8511139  64.3024327
 114.2964477  98.7206550  64.0785542 114.0326766  97.5347423  64.9818357
 108.3637339 101.5906706  52.0354409 108.5311741 102.4586942  52.4024880
 108.1734508 101.7533988  51.1115699 104.5725153 106.5037482  59.7356944
 103.6475650 106.3713696  59.9434636 104.8209567 107.2831701  60.2326887
 114.5209816 102.5706225  61.3817677 113.6126693 102.5021633  61.0876438
 114.4697411 103.0478170  62.2099503 108.3426560 104.0464363  53.0201076
 108.2226185 104.4921414  53.8586557 107.6479148 104.3949681  52.4614614
 101.9333964 106.1470755  60.5700733 102.0626346 106.4005234  61.4840145
 101.2531416 106.7398463  60.2505388 108.5950681 103.9895871  69.3252574
 107.8184016 104.5489791  69.3155439 109.2341245 104.4752654  69.8467444
 116.3871462 100.7722663  63.1595551 115.7445842 101.0655196  62.5135346
 115.8826391 100.6575584  63.9648748 114.0411626 104.5185837  53.8481410
 114.9529482 104.7513223  53.6729108 113.5321273 105.1022881  53.2856489
 106.8497054 106.7981324  68.8870541 107.5911738 107.3366368  68.6105365
 106.1434039 107.4247613  69.0442093 108.6783463 103.8783071  64.8576260
 109.5244659 104.3022485  65.0010909 108.6182101 103.2216695  65.5514823
 111.8282909 101.5387439  66.5157433 111.5843841 102.2929500  65.9791709
 112.1042839 101.9172787  67.3504681 111.3847601 100.6943873  62.0971271
 110.5232080 100.9925126  62.3888009 111.4110035 100.9114271  61.1652304
 108.2009170 109.2386063  58.5045077 108.6647515 109.5173766  57.7149699
 107.9365968 108.3369508  58.3218168 105.0933251 108.7857545  61.4424840
 105.6634608 109.2144813  60.8042325 105.6841363 108.5040129  62.1409026
 107.1378056 105.3609215  55.3134642 107.8402099 105.8130259  55.7808568
 106.8058684 104.7193034  55.9414535 105.5858418 103.9520972  69.6885851
 104.9557078 104.6337253  69.9221248 105.4794505 103.8404054  68.7438990
 100.8803390 103.6192768  60.6151776 100.0902444 103.8750297  60.1391886
 101.3714637 104.4341106  60.7203816 102.8318135 103.9837347  57.5735252
 102.0349299 104.0956042  58.0918748 102.6043728 104.3224000  56.7076143
 108.6623803 110.5082051  65.5217767 108.7268235 110.9702458  66.3575939
 107.9534727 109.8779415  65.6500077  99.1641093 103.8723259  63.0466766
  99.4149131 104.7570268  63.3124342  99.7000641 103.6927860  62.2741858
 104.8639160  98.2541738  72.0511102 104.4706106  97.7007936  72.7258747
 105.6805301  98.5652316  72.4417620 101.8301218 109.6925596  55.9624672
 102.3425739 110.4868846  56.1130237 102.4823931 108.9951887  55.8958274
 103.6396103 112.8091352  58.0447425 103.8162731 113.7309317  57.8568409
 104.4352936 112.4949772  58.4741805 107.7807121  99.6699617  69.6431359
 108.5216835 100.2706770  69.5635821 108.0125044  98.9277255  69.0849402
 102.9248459 104.8555984  67.9209589 102.8101974 103.9541241  68.2216688
 102.0692977 105.1019681  67.5694405 108.5594589 110.5920654  68.3901999
 109.0922926 109.8308942  68.1601307 108.0308670 110.2994306  69.1326153
 111.7264284  95.6980720  63.9195641 111.3828554  96.5882362  63.8434751
 112.0943247  95.5082378  63.0565226  99.7950135 108.0214250  56.7384243
 100.6325357 108.4311259  56.5217951  99.9728402 107.0813693  56.7084437
 111.6914567 105.6889331  52.4268076 111.1761190 106.4593936  52.6656463
 111.4191875 105.0154467  53.0501137 109.2761678 100.5339032  57.4853314
 108.4203274 100.1445882  57.3058953 109.6888630 100.6130993  56.6253100
 110.8060825  98.0685375  61.8844874 110.3025620  98.0315510  61.0712679
 111.0991431  98.9778118  61.9441531 107.0503710  98.1524105  60.8911056
 107.9156707  97.9566914  60.5316945 107.1181219  97.9234457  61.8180412
 111.4800870 103.5616423  54.2527857 111.1751006 103.8762572  55.1038000
 112.4331312 103.6397843  54.2955190 109.9247302 109.7206646  55.9020811
 109.3968663 108.9859406  55.5894048 109.4234805 110.4981323  55.6560779
 104.6566030 100.3826313  58.2627422 105.2309781 100.1601494  57.5300615
 105.2437012 100.4515007  59.0156024 113.7145607 106.2700040  59.0691799
 114.2277488 106.9030031  59.5713509 114.3646831 105.6701235  58.7035159
 104.9835617 102.4130774  52.2823308 104.1472929 102.7505460  52.6032582
 104.8440386 102.2779754  51.3450445 106.9588697  97.2567562  56.9902492
 106.3053110  96.9416579  56.3659107 106.9169171  96.6343302  57.7162315
 108.0699902 107.5386857  48.9055784 107.1626964 107.3076110  49.1046933
 108.5670934 106.7424476  49.0929766 110.1926438 103.7449495  61.3150140
 109.2748999 103.9664442  61.1571828 110.6086581 103.8195806  60.4561847
 110.9761485 105.1440911  56.4452820 111.7233304 105.6562308  56.1359942
 111.2453075 104.8224964  57.3057213 109.2488136 107.6399452  53.4279774
 108.3399355 107.3558484  53.5252244 109.2783219 108.0598530  52.5683081
 113.4240322 102.1798027  58.4271609 112.6863079 101.6675413  58.7581852
 113.6767096 101.7398409  57.6154886 113.5251950  94.9574279  59.0213378
 113.8310827  94.0971643  58.7339293 114.2504555  95.5491899  58.8212372
  99.8176306 105.3604966  57.4094976  99.6200706 104.7674326  56.6846043
  99.2622970 105.0557176  58.1270915 107.7973030 105.2528072  59.5289569
 107.8521639 104.3001909  59.4532046 106.9864232 105.4087511  60.0130868
 108.9464223 109.1808195  50.7667853 108.5083653 108.4644054  50.3073490
 109.6874664 109.4084310  50.2052944 105.7365389 103.8705132  57.2879948
 104.9233255 104.1699302  57.6945140 106.2324384 103.4760821  58.0054431
 111.3339601 104.3346956  66.1194842 111.6888989 104.5618430  66.9789308
 111.9811732 104.6665333  65.4972097 105.2279464 101.4423487  62.9041183
 105.8678844 101.3012247  62.2064147 104.3956995 101.1558001  62.5279785
 106.0039768 110.7425918  59.0176176 106.7980367 110.2476238  58.8158751
 105.2931461 110.2143781  58.6543881 102.3122532 104.8869000  55.0935928
 101.3820120 104.8253455  55.3105891 102.4080004 104.3644952  54.2972570
 102.2308081 101.4123812  57.6814170 102.4914898 102.3269146  57.5723331
 103.0525253 100.9448255  57.8310783 103.7033006 102.8261570  64.8512995
 104.3756059 102.6178932  64.2025643 102.8762793 102.6283656  64.4118227
 109.6058578  99.4523511  66.8678655 108.9586493 100.1513460  66.7743132
 110.3759593  99.8859654  67.2354904 109.7822712 107.2904275  64.9275475
 110.7114772 107.4415435  64.7544442 109.3613742 107.3788296  64.0724122
 108.5811044 111.3154940  62.6974013 108.4422130 110.9473724  63.5699951
 107.7925640 111.8302579  62.5257971 104.1060503 106.1004173  65.6115432
 103.9680301 105.3684411  66.2126971 105.0165427 106.0113073  65.3299619
 106.7342804 105.8124132  65.0999111 107.4442422 105.1717324  65.0585730
 106.6912112 106.0637027  66.0225292 105.4471738 102.7989350  66.9194751
 104.9109095 102.3480088  67.5716347 104.8588446 102.9335259  66.1765215
 104.8573997 102.2578001  49.4821214 103.9803463 102.1366802  49.1183461
 105.3331750 101.4664080  49.2300103  96.3776137 107.0455161  59.5762722
  97.0647177 106.7316891  58.9883737  96.2224266 107.9496526  59.3029973
 101.1810859 101.9345358  64.0047745 101.0969048 101.3271027  63.2698155
 100.3593566 102.4254376  64.0057242 111.3534573 100.4198921  59.3717940
 111.8503273  99.6668883  59.0519011 110.5821555 100.4563238  58.8061150
 107.9369542 102.5616304  59.0989625 107.5667329 102.0087344  59.7870531
 108.4328634 101.9574438  58.5464625 115.8236905 105.0187928  57.4806398
 116.2897357 105.8515919  57.4066701 116.2744406 104.5532909  58.1851656
 113.7953568  97.3868515  61.5197299 112.8816648  97.6172741  61.6879506
 114.2246669  97.4706959  62.3711332 113.5660026 105.5758406  64.0197193
 112.9131477 105.8234314  63.3649646 113.9440406 104.7622545  63.6859671
 109.6147599 106.3178218  70.5063230 108.9388236 106.2172347  71.1765606
 110.4375233 106.1617431  70.9699228 101.3626458 112.5550154  63.1275746
 101.9479895 111.8093842  63.2603650 101.1651297 112.8654111  64.0112410
  95.9544113 105.1255754  61.8480189  95.9928213 104.5919345  62.6417307
  95.4484406 104.5990960  61.2291166 103.3334875  99.9720295  65.3442731
 103.3976202 100.8335126  64.9320129 103.2701996  99.3594296  64.6115090
 102.8087148 102.0443427  68.9915765 103.4359187 101.6620505  69.6053290
 101.9515067 101.8257629  69.3571458  99.5852691 103.8519856  54.9234120
  99.8806132 102.9430535  54.8701174  98.6840726 103.8307596  54.6015123
 103.1146938 101.9275853  60.9061669 102.3933523 102.5411821  60.7669142
 103.9040193 102.4633618  60.8278315 105.9173251  99.2630280  67.1802321
 106.4407653  99.5092576  67.9428630 105.6985584 100.0950314  66.7605458
 101.3140532 101.5333954  55.0473445 100.9853238 100.6531333  54.8648551
 101.6679903 101.4781623  55.9349835 104.4282355 101.8206924  55.4148923
 104.7678428 102.3492845  54.6927531 104.8754476 102.1587330  56.1907490
 107.1225796 100.2043975  64.8651991 106.7822617  99.4051788  65.2672671
 106.4164803 100.5045685  64.2928824 107.7742268  97.2893287  63.3179314
 108.5968337  96.8153765  63.1958204 108.0180332  98.0683771  63.8178000
 106.4150503 100.3181546  53.6142216 107.1358865 100.6962798  53.1105933
 105.7915807 101.0370422  53.7177194 110.5581625 101.0226694  54.5500548
 110.7745240 101.9051332  54.2489376 110.0775693 100.6312908  53.8206190
 105.2980847 103.9812408  61.1271293 105.1525428 104.2952711  62.0195574
 104.8206050 104.5997308  60.5742191 107.1577230 100.9714956  61.1752182
 107.1438798 100.0756049  60.8384480 107.8749658 100.9785619  61.8090468
 109.0103360 101.4052296  63.2205310 108.7521138 102.3269367  63.2189640
 108.4788401 101.0082730  63.9105774  99.7726509 106.5217752  64.0658954
  99.2279977 107.2977560  64.1979228 100.6505859 106.8688557  63.9078075
 106.5614126  99.8529336  56.4439752 106.6830037  98.9245982  56.6430640
 106.2716168  99.8668022  55.5318068 109.4305316  97.5384246  59.5806472
 109.4527013  97.6023579  58.6258452 109.8473375  96.6988755  59.7746978
 100.5592531 105.6487648  66.9589111  99.8174267 105.7970284  67.5453741
 100.2385275 105.9095914  66.0955860 101.0049145 113.5353077  58.9899505
 101.8307164 113.2356849  58.6098149 100.6543197 112.7660700  59.4389294
 105.9730678 112.8879545  61.0597179 105.3510687 112.2250250  60.7599407
 106.6435545 112.9140677  60.3770827  99.2057750 111.4539404  59.9488439
  98.3689658 111.0261578  59.7672440  99.1781395 111.6471847  60.8859230
 106.0455205 101.3661333  70.6529685 106.0943361 102.2423456  70.2707455
 106.5877719 100.8238726  70.0801328 105.5344185 111.4383469  54.5355640
 105.6832305 112.1218933  53.8822312 106.3410628 111.4188559  55.0505095
 113.9411688 104.7425851  68.5622857 114.8421551 104.6032316  68.2706855
 114.0159663 104.9080306  69.5021035 108.2754494 102.1192706  67.4076044
 107.4057803 102.4126272  67.1358632 108.5113974 102.7033151  68.1283307
 103.2896818 107.4648646  55.5416708 103.0442860 106.5610976  55.7396919
 103.4592732 107.4665797  54.5996186 110.9793527  98.3372323  64.9241464
 111.4975471  99.0733350  64.5987953 110.6248660  98.6436316  65.7588223
 102.5592465 103.1977004  53.0402870 101.8661710 103.2721359  52.3842906
 102.3144217 102.4337347  53.5624387 111.2306122  94.7572605  60.4442361
 111.5107875  94.0895794  61.0702787 112.0156729  94.9501701  59.9317024
 115.1014980 103.1790239  64.1913936 116.0532403 103.2788337  64.2126160
 114.9318430 102.3868508  64.7012020 113.1229359 100.2645822  64.3773337
 112.5279292 100.5450835  63.6819825 112.8379056 100.7539723  65.1490078
 109.4186389 105.2692412  49.3483439 110.3645493 105.1398620  49.4171857
 109.0400634 104.5307074  49.8252868 117.7297546 103.1907402  63.3514519
 117.2136595 102.4065859  63.1644447 118.6137495 102.8626119  63.5161038
 115.3908273  96.9348418  59.3110331 115.1933094  96.6263506  60.1953663
 116.0007979  97.6610057  59.4408261 109.3025081 109.3210158  70.8084096
 110.2228091 109.4988757  71.0024143 109.2674664 108.3766203  70.6563796
 107.6029306 103.1942388  49.2838325 106.6960761 102.8975501  49.3601038
 107.8805287 102.8972206  48.4172611  98.5207246 104.5148752  59.7337371
  98.2010031 103.6614060  59.4411745  97.9740674 104.7297330  60.4895338
 102.2987154 107.2311193  63.4506878 102.5173163 108.1628300  63.4694911
 102.7112928 106.8719167  64.2361681 109.2191372  97.7379278  55.4382566
 108.4092100  97.3926363  55.8137812 109.9075788  97.4286822  56.0270178
 111.1481920  96.8157325  57.0606863 111.7012958  97.2352778  57.7196886
 111.3852006  95.8893073  57.1029819 107.1715019 102.8044398  72.8409626
 107.0711746 103.7538755  72.7721718 106.9536561 102.4762637  71.9685697
 106.3728090 100.0529323  49.4250304 107.2347254 100.3784222  49.6846121
 106.5578435  99.2660819  48.9123370  98.3895506 108.1351663  61.7030493
  97.6958978 107.7205616  61.1900447  99.1368497 108.1772200  61.1063912
 114.5260727  98.9257850  56.5685527 113.9459396  99.5842654  56.1863579
 114.2596660  98.1035195  56.1572944 112.9764293  98.3262908  58.7706847
 113.4764072  98.4379442  57.9621166 113.6199901  98.0223960  59.4107656
 107.0346289 106.2341537  71.6574688 106.5513371 107.0341897  71.8638577
 107.1207228 106.2449482  70.7042132 100.3032249 108.0669917  59.5796508
 100.2802937 108.1657604  58.6278391 100.6132885 108.9135068  59.9013674
 102.9619627 110.1246072  63.6943122 103.9162880 110.0930014  63.6273053
 102.7632150 109.6636696  64.5093348 103.5519009 108.6947188  66.2613920
 104.3711898 109.1891267  66.2848757 103.8255816 107.7779156  66.2331487
 113.3085605 101.0857940  55.6241875 112.4211460 101.3707591  55.4062070
 113.7239594 100.9251704  54.7769152 116.6600141 101.1104461  59.3396214
 117.4360531 101.6000914  59.6120831 115.9348275 101.5362515  59.7968084
 119.0972700 101.8232081  60.3970155 119.6917190 101.5827816  59.6863463
 119.1699283 101.1039211  61.0243691 101.3169855 115.6665691  60.7113320
 101.1824323 114.9066092  60.1451318 100.9001918 116.3906591  60.2442109
 113.2826629 106.6012476  55.8392165 113.2261830 107.0581028  54.9999798
 113.8354971 105.8403161  55.6615008 117.0931435 102.3902208  56.6642285
 116.8368369 101.9898844  57.4950492 116.4684303 103.1046002  56.5392424
  98.8053923 103.0285322  66.9606117  99.4512787 102.5184276  67.4493342
  98.5971074 103.7654004  67.5349542 107.3257533  97.2925366  52.7130013
 107.3136203  98.2367206  52.8698284 108.2180955  97.1095512  52.4189474
 111.1409653  93.8868143  56.9675950 110.3742049  93.3326630  57.1132632
 111.5520358  93.9590012  57.8290101 103.1451414 100.1752939  71.0581131
 104.0082876  99.8189744  71.2684455 102.5716825  99.8366834  71.7456535
  39.7820033  -6.6863601  44.5147254  39.2184898  -6.7773664  43.7463542
  39.6672428  -7.5063697  44.9949747  44.4053000  -7.3864226  54.4836569
  44.3941641  -7.7811428  53.6117072  44.5673639  -8.1198153  55.0770340
  37.3284465  -5.1912410  47.3531475  38.1205757  -5.5321585  46.9377774
  37.5681115  -5.0817435  48.2733628  45.3619591  -3.0192634  39.8261719
  44.7107571  -2.4338553  39.4395733  46.1563954  -2.4886439  39.8856757
  39.2875219  -5.9303496  40.2248853  40.0606095  -6.4774509  40.0861729
  39.6400617  -5.0659247  40.4363315  41.1260261  -4.6027114  53.4315753
  40.8350127  -3.6981483  53.3162419  41.7617245  -4.5610587  54.1459822
  42.0516468  -7.2250266  50.0217112  42.6480040  -7.4494243  49.3074075
  42.1091439  -7.9665520  50.6242560  46.8394857  -5.3302202  40.3630703
  46.2040690  -5.2567575  41.0751608  46.5092263  -4.7408603  39.6849783
  41.3437785  -7.8682724  40.0591678  41.2274043  -8.5437821  40.7272763
  41.4540045  -8.3550350  39.2423831  46.0850146  -4.9165699  50.4265546
  45.7850869  -4.0140660  50.3181354  45.7401206  -5.1833515  51.2786699
  39.5362628  -8.4651902  46.4602251  38.6113124  -8.5975688  46.6679943
  39.7847041  -7.6857683  46.9572193  41.0670926   1.8478622  43.3936514
  40.9894956   2.7986447  43.4724995  40.4632570   1.5024494  44.0511440
  41.8134528  -8.1708060  55.6115848  42.5549212  -7.6323016  55.3350672
  41.1071514  -7.5441771  55.7687400  47.2889868  -6.0278919  54.2088010
  47.6973224  -6.4696509  53.4642642  46.5667129  -6.6026292  54.4622202
  47.6118682  -5.4677728  47.9640298  46.9827545  -5.3032014  47.2616366
  47.2244344  -5.0536119  48.7351262  51.4907914  -4.5323291  45.3184662
  50.8058952  -4.1524389  44.7681695  51.5751764  -3.9227964  46.0516610
  43.1646644  -5.7303320  45.2290383  43.6284990  -5.4515617  44.4395006
  42.9003442  -6.6319876  45.0463474  40.0570725  -6.1831839  48.1670147
  40.6272082  -5.7544570  47.5287631  40.6478837  -6.4649254  48.8654332
  49.8604674  -4.0091376  50.0902363  50.6822118  -4.4111189  49.8085045
  49.8567077  -4.1123142  51.0418479  43.6261277  -4.4607333  52.2463074
  43.6905710  -3.9986926  53.0821245  42.9172201  -5.0909968  52.3745383
  43.3409295  -2.7939225  42.1142054  43.2054970  -1.9487690  42.5426902
  43.8819107  -2.5919948  41.3507988  36.7938692  -5.2763787  42.6869979
  37.3063213  -4.4820537  42.8375544  37.4461405  -5.9737497  42.6203580
  38.6033577  -2.1598031  44.7692732  38.7800205  -1.2380066  44.5813716
  39.3990411  -2.4739612  45.1987112  44.9677771  -2.1715659  56.2442396
  44.5241625  -2.9579280  55.9263300  45.6294985  -1.9836508  55.5786287
  39.7264892  -0.6419857  50.7703074  40.2772318  -0.7702794  49.9980068
  38.8876368  -0.3424968  50.4197967  47.0659009  -1.8912859  54.2723797
  47.0477485  -1.0703978  53.7804066  47.9878929  -2.0158784  54.4973938
  43.5232064  -4.3768729  55.1147306  44.0560400  -5.1380441  54.8846614
  42.9946145  -4.6695078  55.8571460  44.8884776  -5.2482737  42.6266118
  44.3606138  -5.9829977  42.3139355  44.3872279  -4.4708061  42.3806086
  43.0337376  -7.4302527  35.6301091  42.1264438  -7.6613273  35.8292240
  43.5308408  -8.2264907  35.8175072  45.9405455   1.2794980  38.5497777
  45.2667154   1.5826677  39.1582735  46.3271277   2.0824061  38.2003234
  44.2125610  -7.3289932  40.1525081  43.3036829  -7.6130899  40.2497550
  44.2420694  -6.9090853  39.2928388  49.4444877  -3.7183342  43.9216248
  48.9907204  -4.5592432  43.9781439  48.8138844  -3.0821944  44.2591028
  47.8877816  -1.8806846  44.8566066  48.1800791  -1.3201789  44.1378432
  48.3976437  -1.5878285  45.6119226  43.9101698  -5.7881188  37.4913159
  43.4721128  -6.5045329  37.0318797  44.6512139  -5.5605073  36.9298251
  42.8511442  -1.1026495  45.9459520  42.8087620  -0.8765648  45.0168052
  43.7674141  -1.3363120  46.0945321  52.0544192  -5.4447464  48.5600749
  52.4880699  -5.5372175  49.4083803  52.7675773  -5.4689964  47.9220765
  40.9677242  -4.2263466  45.7421482  41.7617841  -4.7213145  45.5404057
  40.2568935  -4.7545602  45.3789188  45.7872087  -1.8445370  50.0933850
  45.8409109  -1.2754434  50.8611566  44.9186868  -1.6743485  49.7287887
  47.9774850  -5.2517021  56.6674515  47.8260357  -5.4806469  55.7504599
  47.9679530  -4.2946419  56.6805860  44.7460187  -7.6785108  51.6520782
  45.6752247  -7.5273948  51.4789749  44.3251217  -7.5901087  50.7969428
  43.5448518  -3.6534444  49.4219319  43.4059604  -4.0215659  50.2945258
  42.7563115  -3.1386804  49.2503277  44.1396670   1.4474653  40.7644856
  44.3148426   0.9762696  41.5790479  43.4529458   2.0740419  40.9926117
  45.0953734  -4.2752841  46.8108157  44.7603566  -4.3152071  47.7065807
  44.5957679  -4.9408125  46.3378567  48.0312925  -6.9296807  37.0845217
  47.4142096  -7.6549978  36.9878270  47.5629414  -6.1687446  36.7412291
  49.6867057  -2.2197898  54.7450997  49.6279603  -2.9038678  54.0781580
  50.0886575  -1.4778908  54.2931623  38.7057756   4.5964016  47.5384716
  38.9454354   5.2282540  48.2163735  37.8626952   4.2452056  47.8250075
  49.6884464  -4.2558314  52.9764977  48.8011243  -4.5932392  53.0991376
  50.2583015  -4.9875283  53.2133742  43.2185618   0.4043138  49.9426220
  43.1455789   1.2098110  50.4545525  42.7763011   0.6035104  49.1174241
  43.0075397  -0.3585092  43.4529042  42.2242919   0.1836588  43.5467266
  43.7068142   0.1588888  43.8523283  45.6784301   0.3029972  52.0984379
  46.3912273   0.9377437  52.0260280  45.1874330   0.3993838  51.2824381
  47.4001828  -5.7918775  43.6701670  46.4658107  -5.6717313  43.5006375
  47.5778496  -6.6946308  43.4061680  40.7296215  -1.9475584  52.9189950
  41.4305674  -1.3139101  53.0719344  40.2591330  -1.6060853  52.1585589
  48.8550610  -3.6057635  41.2037857  49.1310454  -3.7201040  42.1131731
  47.9855109  -4.0040150  41.1650030  45.4904674   0.6428716  44.8470670
  45.6727069  -0.1749628  45.3098423  46.3137660   0.8596408  44.4095560
  45.8246840  -0.4303099  42.1085719  46.3534606  -0.9410644  41.4955881
  46.0875060  -0.7460568  42.9731252  36.3263933  -2.4139229  49.8521052
  36.9117370  -3.1595541  49.9848956  36.1288771  -2.1035273  50.7357716
  39.1802588   0.6212018  44.8683495  38.5112963   1.1058146  44.3847535
  39.0415458   0.8681238  45.7826873  43.3207857   2.6555762  51.4666153
  43.8726165   2.8187383  52.2315238  43.6614050   3.2460199  50.7946178
  48.1718731  -2.5182981  57.3214807  48.7158635  -1.9053023  56.8269762
  47.5905576  -1.9603403  57.8381820  46.4576244   0.6037737  48.4529835
  46.3327383  -0.1972523  47.9440781  47.1155335   1.0983930  47.9643805
  48.5211152  -1.5953243  50.0809385  47.5741488  -1.7147892  50.0087712
  48.8693925  -2.4830745  50.1635647  45.5257585  -1.8000527  46.2813737
  45.3782548  -2.7283819  46.4621308  46.3511079  -1.7780436  45.7970813
  49.1291707  -0.9771968  47.3678610  50.0538255  -1.1829107  47.2303061
  48.9607011  -1.2255567  48.2767952  48.9187024  -0.4586300  42.7240702
  49.0923901  -1.0239878  41.9714554  49.4115915   0.3414594  42.5420192
  49.9062196  -1.1419536  39.8237600  50.6013101  -0.5212843  40.0424915
  50.2485346  -1.9924185  40.0989978  51.8053619  -3.6919831  41.3524931
  52.3304943  -3.3532558  40.6274251  51.7175972  -4.6272815  41.1688065
  43.4673668   0.2214243  53.4814807  43.7760794  -0.0236610  54.3537507
  44.2649150   0.4260882  52.9933678  43.4894280   2.3752153  45.7120184
  43.0499270   1.8828531  46.4053041  44.2402397   1.8325120  45.4712259
  35.9686619  -1.4336306  45.7144812  36.7944639  -1.7332535  45.3343456
  35.6180671  -2.2028684  46.1634601  40.9368152  -2.0809838  47.7842486
  40.3148161  -2.7439133  47.4844713  41.6073019  -2.0548706  47.1016133
  34.1695224  -3.5149980  46.6733746  33.3327132  -3.9427806  46.4917747
  34.1418869  -3.3217537  47.6104537  51.4947525  -3.0586927  56.6576129
  50.7043069  -3.0762788  56.1180628  51.2580880  -2.5198633  57.4125165
  40.4981659  -3.5305915  41.2600946  40.6469779  -2.8470450  40.6067619
  41.3048102  -3.5500825  41.7750402  53.1163597  -3.7897519  54.2150879
  52.8248405  -3.4267538  55.0514340  52.5035728  -4.5030511  54.0364211
  38.2534292  -7.5040737  42.2662015  38.0080334  -8.4078407  42.4642225
  38.4230206  -7.5023587  41.3241493  43.9977064  -1.0357784  38.7312694
  43.4251032  -0.4167597  38.2783165  44.5709858  -0.4858423  39.2652616
  47.2174324  -0.7520634  39.8621276  48.1504997  -0.8175073  40.0654151
  47.1297537   0.0835633  39.4035808  49.8462341  -1.4354764  36.8225223
  49.7675972  -1.7694900  37.7160981  50.6672008  -0.9432996  36.8216696
  44.2662555  -5.6479225  57.5329403  45.1865565  -5.4700626  57.7269450
  44.2312139  -6.5923180  57.3809102  37.2624628  -7.7378191  50.1752184
  37.4810638  -6.8061083  50.1940218  37.6750402  -8.0970216  50.9606988
  41.9983763  -8.7347846  58.3819995  41.5150845  -7.9347486  58.5883884
  42.0844702  -8.7239901  57.4287439  37.9257101  -4.8443312  50.4188429
  38.8800354  -4.8759369  50.3518360  37.7269624  -5.3052688  51.2338654
  38.5156483  -6.2742195  52.9859226  39.3349372  -5.7798117  53.0094064
  38.7893291  -7.1910227  52.9576794  36.2807330   0.6976308  47.4358626
  36.1461798  -0.0623291  46.8696624  35.8639392   1.4217208  46.9687415
  47.4166293  -4.1186768  36.4435202  48.1202143  -3.9136766  37.0592857
  46.6928941  -3.5510007  36.7084285  39.4376456   1.5945625  47.6477069
  39.3208840   2.5391057  47.5455759  38.6168902   1.2919187  48.0362868
  49.3252990  -3.6804239  38.4933662  50.1598594  -4.1123041  38.3111137
  49.1637333  -3.8522226  39.4210556  46.2944789  -4.8723214  59.1843564
  47.1635949  -4.6982562  58.8230199  45.8151541  -4.0528797  59.0619293
  40.4630970   2.2473887  50.8632998  41.3658216   2.2797497  51.1799492
  40.2368340   1.3174338  50.8779333  42.2184572   1.0004873  47.5243076
  41.2680203   1.0006735  47.4107448  42.5217058   0.2537608  47.0079111
  57.9537265   6.8365412  48.5888839  58.5915675   6.7172159  47.8852179
  57.8358108   7.7846256  48.6476791  54.7626971   6.7892840  48.5250363
  54.4245483   6.6733905  47.6370898  55.6316740   6.3884005  48.5051369
  50.6213787   8.6428316  44.5147254  50.0578652   8.5518253  43.7463542
  50.5066182   7.8228221  44.9949747  55.2446754   7.9427692  54.4836569
  55.2335395   7.5480490  53.6117072  55.4067394   7.2093764  55.0770340
  48.1678219  10.1379508  47.3531475  48.9599511   9.7970333  46.9377774
  48.4074869  10.2474483  48.2733628  56.2013346  12.3099284  39.8261719
  55.5501326  12.8953364  39.4395733  56.9957709  12.8405479  39.8856757
  50.1268973   9.3988421  40.2248853  50.8999849   8.8517408  40.0861729
  50.4794372  10.2632671  40.4363315  51.9654016  10.7264803  53.4315753
  51.6743882  11.6310434  53.3162419  52.6011000  10.7681331  54.1459822
  52.8910222   8.1041652  50.0217112  53.4873795   7.8797674  49.3074075
  52.9485194   7.3626397  50.6242560  52.4635251   5.5581087  37.8567303
  52.7160772   5.0362609  37.0950766  51.5259810   5.3947233  37.9593987
  57.5078534   4.5616866  45.6642047  58.2941623   4.1436289  45.3132464
  57.7717238   5.4662958  45.8323695  57.6788611   9.9989716  40.3630703
  57.0434444  10.0724342  41.0751608  57.3486017  10.5883315  39.6849783
  62.9086961   4.4992099  46.5675025  63.6412133   3.9291316  46.8012855
  62.1526317   4.1113699  47.0081531  52.1831540   7.4609193  40.0591678
  52.0667798   6.7854097  40.7272763  52.2933799   6.9741567  39.2423831
  54.5263081   6.9219340  43.7638368  54.1621288   6.3949961  44.4751289
  55.3830196   6.5317809  43.5904853  60.4312381  -1.7886327  51.0269634
  60.0995706  -0.9190916  50.8030849  59.8357995  -2.1050043  51.7063664
  54.1668568   1.9509240  38.7599716  54.3342970   2.8189476  39.1270187
  53.9765737   2.1136522  37.8361005  56.9243901  10.4126219  50.4265546
  56.6244624  11.3151258  50.3181354  56.5794960  10.1458402  51.2786699
  50.3756382   6.8640016  46.4602251  49.4506879   6.7316230  46.6679943
  50.6240795   7.6434235  46.9572193  60.3241044   2.9308759  48.1062984
  59.4157922   2.8624168  47.8121745  60.2728640   3.4080704  48.9344809
  54.1457788   4.4066898  39.7446383  54.0257414   4.8523948  40.5831863
  53.4510377   4.7552215  39.1859921  47.7365193   6.5073289  47.2946040
  47.8657574   6.7607768  48.2085452  47.0562645   7.1000997  46.9750695
  51.9064680  17.1770539  43.3936514  51.8288710  18.1278364  43.4724995
  51.3026324  16.8316412  44.0511440  54.3981910   4.3498405  56.0497881
  53.6215244   4.9092325  56.0400746  55.0372473   4.8355188  56.5712751
  62.1902691   1.1325198  49.8840858  61.5477071   1.4257731  49.2380652
  61.6857619   1.0178118  50.6894054  59.8442855   4.8788371  40.5726717
  60.7560711   5.1115757  40.3974414  59.3352502   5.4625415  40.0101796
  52.6528283   7.1583858  55.6115848  53.3942967   7.6968902  55.3350672
  51.9465268   7.7850147  55.7687400  58.1283622   9.3012999  54.2088010
  58.5366978   8.8595409  53.4642642  57.4060884   8.7265626  54.4622202
  54.4814692   4.2385605  51.5821566  55.3275887   4.6625019  51.7256215
  54.4213330   3.5819230  52.2760130  58.4512437   9.8614189  47.9640298
  57.8221299  10.0259903  47.2616366  58.0638099  10.2755799  48.7351262
  62.3301669  10.7968627  45.3184662  61.6452707  11.1767528  44.7681695
  62.4145518  11.4063954  46.0516610  57.6314138   1.8989974  53.2402740
  57.3875069   2.6532034  52.7037016  57.9074068   2.2775321  54.0749987
  59.5852600   8.4428586  51.9180006  59.7969496   9.0860346  51.2414387
  59.5382349   7.6090903  51.4501936  57.1878829   1.0546407  48.8216578
  56.3263308   1.3527660  49.1133315  57.2141264   1.2716806  47.8897610
  54.0040399   9.5988597  45.2290383  54.4678744   9.8776300  44.4395006
  53.7397197   8.6972042  45.0463474  50.8964480   9.1460079  48.1670147
  51.4665837   9.5747347  47.5287631  51.4872592   8.8642664  48.8654332
  52.9409285   5.7211750  42.0379949  53.6433328   6.1732793  42.5053875
  52.6089913   5.0795569  42.6659842  51.3889646   4.3123506  56.4131158
  50.7588307   4.9939787  56.6466555  51.2825734   4.2006588  55.4684296
  46.6834619   3.9795302  47.3397082  45.8933673   4.2352831  46.8637193
  47.1745866   4.7943640  47.4449123  60.6998428  11.3200541  50.0902363
  61.5215872  10.9180729  49.8085045  60.6960831  11.2168776  51.0418479
  48.6349364   4.3439882  44.2980559  47.8380527   4.4558576  44.8164055
  48.4074956   4.6826534  43.4321449  54.4655032  10.8684585  52.2463074
  54.5299464  11.3304992  53.0821245  53.7565956  10.2381950  52.3745383
  44.9672322   4.2325793  49.7712073  45.2180360   5.1172803  50.0369649
  45.5031870   4.0530394  48.9987165  68.7904421   7.6639290  46.4387334
  68.0368130   7.0946688  46.2831339  68.9251963   7.6301954  47.3857969
  54.1803049  12.5352692  42.1142054  54.0448724  13.3804228  42.5426902
  54.7212862  12.7371970  41.3507988  50.6670389  -1.3855728  58.7756409
  50.2737335  -1.9389529  59.4504053  51.4836529  -1.0745149  59.1662927
  47.6332447  10.0528130  42.6869979  48.1456967  10.8471381  42.8375544
  48.2855160   9.3554421  42.6203580  49.4427331  13.1693887  44.7692732
  49.6193960  14.0911851  44.5813716  50.2384165  12.8552306  45.1987112
  53.5838350   0.0302151  56.3676666  54.3248063   0.6309304  56.2881128
  53.8156273  -0.7120211  55.8094708  48.7279688   5.2158518  54.6454895
  48.6133203   4.3143776  54.9461994  47.8724206   5.4622215  54.2939712
  55.8071526  13.1576259  56.2442396  55.3635380  12.3712637  55.9263300
  56.4688739  13.3455409  55.5786287  50.5658647  14.6872060  50.7703074
  51.1166072  14.5589124  49.9980068  49.7270123  14.9866949  50.4197967
  57.9052764  13.4379059  54.2723797  57.8871239  14.2587940  53.7804066
  58.8272684  13.3133134  54.4973938  54.3625818  10.9523188  55.1147306
  54.8954155  10.1911476  54.8846614  53.8339899  10.6596840  55.8571460
  45.5981364   8.3816785  43.4629549  46.4356586   8.7913793  43.2463257
  45.7759631   7.4416227  43.4329743  57.4945796   6.0491865  39.1513382
  56.9792419   6.8196470  39.3901770  57.2223104   5.3757001  39.7746444
  55.0792907   0.8941566  44.2098621  54.2234503   0.5048416  44.0304259
  55.4919858   0.9733527  43.3498406  56.6092053  -1.5712091  48.6090181
  56.1056849  -1.6081956  47.7957986  56.9022660  -0.6619348  48.6686837
  52.8534939  -1.4873361  47.6156362  53.7187936  -1.6830552  47.2562252
  52.9212448  -1.7163009  48.5425719  62.4680070   8.8024220  41.0866556
  61.6909513   8.4635379  40.6421718  63.1471551   8.8076843  40.4121521
  57.2832099   3.9218957  40.9773164  56.9782234   4.2365107  41.8283307
  58.2362541   4.0000377  41.0200497  55.7278531  10.0809181  42.6266118
  55.1999892   9.3461940  42.3139355  55.2266033  10.8583857  42.3806086
  60.7071377   8.2758201  47.7433164  60.0495051   8.9657463  47.8313293
  61.5111776   8.6654633  48.0867150  50.4597258   0.7428847  44.9872729
  51.0341010   0.5204028  44.2545922  51.0468241   0.8117541  45.7401330
  59.5176836   6.6302574  45.7937106  60.0308717   7.2632566  46.2958815
  60.1678059   6.0303769  45.4280466  50.7866845   2.7733308  39.0068614
  49.9504158   3.1107995  39.3277889  50.6471615   2.6382288  38.0695751
  52.7619926  -2.3829904  43.7147799  52.1084338  -2.6980887  43.0904413
  52.7200400  -3.0054164  44.4407621  53.8731131   7.8989391  35.6301091
  52.9658193   7.6678644  35.8292240  54.3702163   7.1027010  35.8175072
  56.7799210  16.6086898  38.5497777  56.1060909  16.9118595  39.1582735
  57.1665032  17.4115978  38.2003234  55.9957666   4.1052029  48.0395446
  55.0780228   4.3266976  47.8817134  56.4117810   4.1798340  47.1807153
  56.7792714   5.5043445  43.1698126  57.5264533   6.0164842  42.8605248
  57.0484304   5.1827498  44.0302520  55.0519364   8.0001986  40.1525081
  54.1430584   7.7161019  40.2497550  55.0814448   8.4201064  39.2928388
  60.2838632  11.6108575  43.9216248  59.8300959  10.7699485  43.9781439
  59.6532598  12.2469974  44.2591028  59.2271551   2.5400561  45.1516916
  58.4894308   2.0277948  45.4827158  59.4798325   2.1000943  44.3400193
  58.7271571  13.4485072  44.8566066  59.0194545  14.0090129  44.1378432
  59.2370192  13.7413633  45.6119226  45.6207535   5.7207500  44.1340283
  45.4231935   5.1276861  43.4091349  45.0654199   5.4159710  44.8516222
  53.6004258   5.6130606  46.2534876  53.6552868   4.6604443  46.1777353
  52.7895460   5.7690046  46.7376174  54.7495452   9.5410729  37.4913159
  54.3114882   8.8246588  37.0318797  55.4905893   9.7686844  36.9298251
  51.5396618   4.2307666  44.0125255  50.7264484   4.5301837  44.4190447
  52.0355612   3.8363355  44.7299737  53.6905196  14.2265423  45.9459520
  53.6481375  14.4526269  45.0168052  54.6067895  13.9928798  46.0945321
  57.1370830   4.6949491  52.8440149  57.4920218   4.9220964  53.7034615
  57.7842961   5.0267867  52.2217404  62.8668567   7.8167927  43.5489478
  62.7286466   8.0069522  42.6210667  62.5104786   8.5787309  44.0057529
  51.0310693   1.8026022  49.6286490  51.6710072   1.6614781  48.9309453
  50.1988224   1.5160535  49.2525092  62.8937947   9.8844454  48.5600749
  63.3274453   9.7919743  49.4083803  63.6069527   9.8601954  47.9220765
  51.8070997  11.1028452  45.7421482  52.6011595  10.6078772  45.5404057
  51.0962689  10.5746315  45.3789188  56.6265841  13.4846548  50.0933850
  56.6802864  14.0537484  50.8611566  55.7580623  13.6548433  49.7287887
  48.1153760   5.2471534  41.8181235  47.1851349   5.1855989  42.0351197
  48.2111232   4.7247487  41.0217876  48.0339309   1.7726347  44.4059477
  48.2946127   2.6871680  44.2968637  48.8556482   1.3050789  44.5556089
  49.5064235   3.1864104  51.5758301  50.1787288   2.9781466  50.9270950
  48.6794021   2.9886190  51.1363533  63.7553496   9.9268154  51.0933635
  63.9489386  10.8313965  51.3392910  63.6554114   9.4675573  51.9272220
  55.4089807  -0.1873955  53.5923962  54.7617722   0.5115994  53.4988438
  56.1790822   0.2462189  53.9600210  58.8168605  10.0774897  56.6674515
  58.6654111   9.8485449  55.7504599  58.8073284  11.0345498  56.6805860
  55.5853941   7.6506810  51.6520782  56.5146001   7.8017969  51.4789749
  55.1644971   7.7390830  50.7969428  54.3842273  11.6757474  49.4219319
  54.2453359  11.3076258  50.2945258  53.5956869  12.1905114  49.2503277
  54.9790425  16.7766571  40.7644856  55.1542181  16.3054614  41.5790479
  54.2923213  17.4032337  40.9926117  55.9347488  11.0539077  46.8108157
  55.5997321  11.0139847  47.7065807  55.4351434  10.3883793  46.3378567
  49.9091732   6.4606707  52.3360738  49.7711530   5.7286946  52.9372277
  50.8196656   6.3715607  52.0544926  58.8706680   8.3995111  37.0845217
  58.2535850   7.6741939  36.9878270  58.4023168   9.1604471  36.7412291
  52.5374033   6.1726666  51.8244418  53.2473651   5.5319858  51.7831036
  52.4943341   6.4239561  52.7470599  60.5260811  13.1094019  54.7450997
  60.4673358  12.4253240  54.0781580  60.9280330  13.8513009  54.2931623
  51.2502967   3.1591884  53.6440057  50.7140324   2.7082622  54.2961654
  50.6619675   3.2937793  52.9010522  49.5451510  19.9255933  47.5384716
  49.7848108  20.5574457  48.2163735  48.7020707  19.5743973  47.8250075
  50.6605226   2.6180535  36.2066521  49.7834692   2.4969336  35.8428768
  51.1362979   1.8266614  35.9545410  60.5278219  11.0733603  52.9764977
  59.6404997  10.7359525  53.0991376  61.0976770  10.3416635  53.2133742
  42.1807366   7.4057695  46.3008028  42.8678406   7.0919425  45.7129044
  42.0255494   8.3099060  46.0275280  46.9842088   2.2947892  50.7293052
  46.9000277   1.6873561  49.9943462  46.1624794   2.7856910  50.7302548
  54.0579372  15.7335056  49.9426220  53.9849544  16.5390027  50.4545525
  53.6156765  15.9327022  49.1174241  53.8469152  14.9706826  43.4529042
  53.0636674  15.5128506  43.5467266  54.5461897  15.4880805  43.8523283
  57.1565802   0.7801455  46.0963247  57.6534501   0.0271418  45.7764317
  56.3852783   0.8165772  45.5306456  65.0095559   6.4841821  47.7381539
  64.9985435   7.3666536  47.3675472  64.1412939   6.1313372  47.5436076
  56.5178056  15.6321890  52.0984379  57.2306028  16.2669355  52.0260280
  56.0268084  15.7285756  51.2824381  58.2395582   9.5373142  43.6701670
  57.3051861   9.6574605  43.5006375  58.4172251   8.6345609  43.4061680
  53.7400771   2.9218838  45.8234932  53.3698558   2.3689879  46.5115837
  54.2359863   2.3176972  45.2709932  61.6268134   5.3790462  44.2051705
  62.0928586   6.2118453  44.1312007  62.0775634   4.9135443  44.9096963
  51.5689969  13.3816333  52.9189950  52.2699429  14.0152816  53.0719344
  51.0985084  13.7231065  52.1585589  59.6944365  11.7234283  41.2037857
  59.9704209  11.6090878  42.1131731  58.8248864  11.3251768  41.1650030
  59.5984797  -2.2528951  48.2442606  58.6847876  -2.0224724  48.4124813
  60.0277898  -2.1690507  49.0956638  59.3691255   5.9360941  50.7442500
  58.7162705   6.1836848  50.0894953  59.7471635   5.1225079  50.4104977
  56.3298429  15.9720634  44.8470670  56.5120823  15.1542290  45.3098423
  57.1531415  16.1888326  44.4095560  56.6640594  14.8988819  42.1085719
  57.1928361  14.3881274  41.4955881  56.9268814  14.5831349  42.9731252
  55.4178828   6.6780752  57.2308537  54.7419465   6.5774881  57.9010912
  56.2406462   6.5219966  57.6944534  47.1657687  12.9152688  49.8521052
  47.7511124  12.1696376  49.9848956  46.9682526  13.2256645  50.7357716
  50.0196342  15.9503936  44.8683495  49.3506718  16.4350063  44.3847535
  49.8809212  16.1973156  45.7826873  41.7575342   5.4858289  48.5725495
  41.7959441   4.9521879  49.3662614  41.2515635   4.9593494  47.9536473
  54.1601611  17.9847679  51.4666153  54.7119919  18.1479301  52.2315238
  54.5007804  18.5752117  50.7946178  49.1366104   0.3322829  52.0688038
  49.2007431   1.1937660  51.6565435  49.0733224  -0.2803169  51.3360396
  48.6118377   2.4045962  55.7161072  49.2390416   2.0223039  56.3298596
  47.7546296   2.1860163  56.0816764  59.0112485  12.8108937  57.3214807
  59.5552389  13.4238895  56.8269762  58.4299330  13.3688515  57.8381820
  45.3883920   4.2122391  41.6479427  45.6837361   3.3033069  41.5946480
  44.4871955   4.1910130  41.3260429  57.2969998  15.9329655  48.4529835
  57.1721138  15.1319395  47.9440781  57.9549089  16.4275848  47.9643805
  48.9178167   2.2878387  47.6306975  48.1964752   2.9014355  47.4914449
  49.7071422   2.8236152  47.5523621  59.3604907  13.7338675  50.0809385
  58.4135242  13.6144026  50.0087712  59.7087680  12.8461173  50.1635647
  51.7204480  -0.3767186  53.9047627  52.2438882  -0.1304890  54.6673936
  51.5016813   0.4552849  53.4850764  47.1171761   1.8936488  41.7718752
  46.7884467   1.0133867  41.5893858  47.4711132   1.8384157  42.6595141
  56.3651340  13.5291391  46.2813737  56.2176302  12.6008098  46.4621308
  57.1904833  13.5511482  45.7970813  50.2313584   2.1809458  42.1394230
  50.5709657   2.7095379  41.4172838  50.6785705   2.5189864  42.9152796
  59.9685462  14.3519950  47.3678610  60.8932009  14.1462811  47.2303061
  59.8000765  14.1036351  48.2767952  52.9257025   0.5646509  51.5897298
  52.5853845  -0.2345678  51.9917978  52.2196031   0.8648220  51.0174131
  53.5773497  -2.3504179  50.0424621  54.3999566  -2.8243701  49.9203511
  53.8211560  -1.5713695  50.5423307  52.2181731   0.6784080  40.3387522
  52.9390094   1.0565333  39.8351239  51.5947036   1.3972957  40.4422500
  56.3612854   1.3829229  41.2745855  56.5776469   2.2653867  40.9734683
  55.8806921   0.9915442  40.5451497  51.1012076   4.3414942  47.8516599
  50.9556656   4.6555245  48.7440881  50.6237279   4.9599842  47.2987498
  52.9608459   1.3317490  47.8997489  52.9470027   0.4358583  47.5629787
  53.6780887   1.3388154  48.5335775  54.8134589   1.7654830  49.9450616
  54.5552367   2.6871901  49.9434947  54.2819630   1.3685265  50.6351080
  59.7580778  14.8705617  42.7240702  59.9317656  14.3052040  41.9714554
  60.2509669  15.6706512  42.5420192  45.5757738   6.8820286  50.7904260
  45.0311206   7.6580094  50.9224535  46.4537088   7.2291091  50.6323382
  52.3645354   0.2131870  43.1685059  52.4861266  -0.7151484  43.3675947
  52.0747397   0.2270556  42.2563374  55.2336545  -2.1013219  46.3051779
  55.2558242  -2.0373886  45.3503758  55.6504604  -2.9408711  46.4992285
  65.6120169   7.6342040  44.3431001  66.0551315   6.8849365  43.9450125
  64.7346679   7.6252177  43.9604733  60.7455950  14.1872382  39.8237600
  61.4406855  14.8079074  40.0424915  61.0879101  13.3367733  40.0989978
  46.3623760   6.0090183  53.6834417  45.6205496   6.1572818  54.2699048
  46.0416504   6.2698448  52.8201167  62.6447374  11.6372087  41.3524931
  63.1698698  11.9759360  40.6274251  62.5569726  10.7019102  41.1688065
  54.3067422  15.5506161  53.4814807  54.6154549  15.3055308  54.3537507
  55.1042904  15.7552799  52.9933678  54.3288034  17.7044070  45.7120184
  53.8893025  17.2120449  46.4053041  55.0796151  17.1617038  45.4712259
  46.8080373  13.8955611  45.7144812  47.6338393  13.5959383  45.3343456
  46.4574425  13.1263234  46.1634601  51.7761907  13.2482080  47.7842486
  51.1541916  12.5852785  47.4844713  52.4466773  13.2743211  47.1016133
  45.0088978  11.8141938  46.6733746  44.1720887  11.3864112  46.4917747
  44.9812624  12.0074381  47.6104537  51.8486434   1.7263868  57.3774992
  51.8974589   2.6025990  56.9952761  52.3908948   1.1841261  56.8046635
  62.3341280  12.2704991  56.6576129  61.5436823  12.2529130  56.1180628
  62.0974634  12.8093284  57.4125165  62.4539155   9.1197457  53.9708857
  62.5037160   8.9547465  54.9124380  62.3453078   8.2524716  53.5806738
  51.3375413  11.7986003  41.2600946  51.4863534  12.4821467  40.6067619
  52.1441857  11.7791093  41.7750402  59.7442917   5.1028385  55.2868164
  60.6452780   4.9634850  54.9952162  59.8190892   5.2682840  56.2266341
  54.0785722   2.4795240  54.1321350  53.2089032   2.7728806  53.8603939
  54.3145203   3.0635685  54.8528614  63.9557352  11.5394399  54.2150879
  63.6642160  11.9024379  55.0514340  63.3429483  10.8261407  54.0364211
  65.1553034   9.1047278  46.7353449  65.9899925   9.5437083  46.8991009
  65.2912163   8.6285932  45.9161695  62.2044540   6.6627013  52.6830937
  62.6798661   6.8554660  51.8749788  61.2810105   6.7186199  52.4374320
  49.0928046   7.8251180  42.2662015  48.8474088   6.9213510  42.4642225
  49.2623961   7.8268331  41.3241493  56.7824756  -1.3025143  51.6486771
  57.3006700  -0.5664116  51.3233259  56.4279889  -0.9961150  52.4833530
  48.3623694   3.5579538  39.7648177  47.6692939   3.6323893  39.1088212
  48.1175446   2.7939882  40.2869693  54.8370819  14.2934133  38.7312694
  54.2644786  14.9124320  38.2783165  55.4103613  14.8433495  39.2652616
  60.9046209   3.5392773  50.9159242  61.8563632   3.6390871  50.9371466
  60.7349659   2.7471042  51.4257327  58.9260588   0.6248357  51.1018643
  58.3310520   0.9053369  50.4065132  58.6410285   1.1142258  51.8735384
  58.0568079  14.5771283  39.8621276  58.9898752  14.5116845  40.0654151
  57.9691292  15.4127550  39.4035808  60.6856095  13.8937154  36.8225223
  60.6069727  13.5597017  37.7160981  61.5065762  14.3858922  36.8216696
  63.3834287   6.7598893  50.0301542  63.3510607   5.8214894  50.2161226
  63.9934910   6.8382930  49.2967367  55.2217617   5.6294946  36.0728746
  56.1676722   5.5001154  36.1417164  54.8431862   4.8909608  36.5498174
  63.5328775   3.5509937  50.0759825  63.0167824   2.7668393  49.8889754
  64.4168724   3.2228653  50.2406345  69.2010836   7.8214900  49.1707579
  69.9314225   7.5600188  49.7315282  68.5917782   7.0843622  49.2109647
  67.2826134   5.9622763  49.7682030  66.5559297   5.8278727  49.1598522
  66.8673420   6.2699591  50.5738748  55.1056310   9.6812692  57.5329403
  56.0259319   9.8591291  57.7269450  55.0705893   8.7368738  57.3809102
  53.4060535   3.5544922  36.0083631  52.4991990   3.2578035  36.0846345
  53.6836516   3.2574741  35.1417918  44.3238475   4.8751286  46.4582678
  44.0041259   4.0216594  46.1657052  43.7771903   5.0899864  47.2140645
  48.1018383   7.5913727  50.1752184  48.3204392   8.5230835  50.1940218
  48.5144156   7.2321701  50.9606988  55.0222600  -1.9018188  42.1627873
  54.2123329  -2.2471103  42.5383119  55.7107017  -2.2110644  42.7515484
  56.9513149  -2.8240141  43.7852169  57.5044187  -2.4044688  44.4442192
  57.1883235  -3.7504393  43.8275125  52.9746248   3.1646933  59.5654933
  52.8742975   4.1141290  59.4967024  52.7567790   2.8365172  58.6931003
  52.1759319   0.4131858  36.1495610  53.0378483   0.7386756  36.4091428
  52.3609663  -0.3736646  35.6368676  44.1926735   8.4954197  48.4275799
  43.4990206   8.0808150  47.9145754  44.9399726   8.5374734  47.8309218
  60.3291956  -0.7139616  43.2930833  59.7490625  -0.0554812  42.9108886
  60.0627888  -1.5362271  42.8818251  58.7795522  -1.3134558  45.4952154
  59.2795300  -1.2018024  44.6866473  59.4231130  -1.6173505  46.1352962
  52.8377518   6.5944071  58.3819995  52.3544600   7.3944432  58.5883884
  52.9238457   6.6052016  57.4287439  46.1063478   8.4272451  46.3041814
  46.0834166   8.5260138  45.3523697  46.4164114   9.2737602  46.6258980
  48.7650855  10.4848606  50.4188429  49.7194109  10.4532548  50.3518360
  48.5663379  10.0239230  51.2338654  49.3550238   9.0549722  52.9859226
  50.1743127   9.5493801  53.0094064  49.6287045   8.1381690  52.9576794
  59.1116834   1.4460475  42.3487182  58.2242689   1.7310125  42.1307376
  59.5270823   1.2854238  41.5014459  62.4631370   1.4706995  46.0641521
  63.2391760   1.9603448  46.3366138  61.7379504   1.8965050  46.5213390
  64.9003928   2.1834615  47.1215462  65.4948419   1.9430351  46.4108770
  64.9730512   1.4641745  47.7488998  47.1201084  16.0268226  47.4358626
  46.9855552  15.2668627  46.8696624  46.7033146  16.7509126  46.9687415
  58.2560047  11.2105149  36.4435202  58.9595897  11.4155152  37.0592857
  57.5322696  11.7781911  36.7084285  59.0857857   6.9615010  42.5637472
  59.0293059   7.4183562  41.7245104  59.6386200   6.2005695  42.3860315
  62.8962663   2.7504742  43.3887591  62.6399598   2.3501378  44.2195799
  62.2715531   3.4648536  43.2637731  67.2075001   5.4900816  45.8958883
  66.6474559   5.5594005  46.6690445  66.6018505   5.3141800  45.1758379
  50.2770210  16.9237543  47.6477069  50.1602594  17.8682975  47.5455759
  49.4562656  16.6211104  48.0362868  60.1646745  11.6487678  38.4933662
  60.9992349  11.2168877  38.3111137  60.0031088  11.4769692  39.4210556
  59.8192637   8.1519792  39.8590001  59.7641441   7.9864063  38.9178445
  59.1938692   8.8595825  40.0152191  44.6085152   3.3887856  53.6851423
  45.2544015   2.8786810  54.1738648  44.4002303   4.1256538  54.2594849
  57.1338544  10.4568704  59.1843564  58.0029704  10.6309356  58.8230199
  56.6545295  11.2763120  59.0619293  53.1288762  -2.3472099  39.4375319
  53.1167432  -1.4030259  39.5943590  54.0212184  -2.5301954  39.1434781
  51.3024724  17.5765805  50.8632998  52.2051971  17.6089415  51.1799492
  51.0762094  16.6466256  50.8779333  53.0578326  16.3296791  47.5243076
  52.1073957  16.3298653  47.4107448  53.3610812  15.5829526  47.0079111
  48.9482643   0.5355473  57.7826438  49.8114104   0.1792278  57.9929762
  48.3748053   0.1969368  58.4701842  68.7931020  22.1657330  48.5888839
  69.4309430  22.0464077  47.8852179  68.6751863  23.1138173  48.6476791
  65.6020726  22.1184758  48.5250363  65.2639237  22.0025822  47.6370898
  66.4710494  21.7175923  48.5051369  61.4607542  23.9720234  44.5147254
  60.8972407  23.8810171  43.7463542  61.3459937  23.1520138  44.9949747
  66.0840509  23.2719609  54.4836569  66.0729150  22.8772408  53.6117072
  66.2461148  22.5385682  55.0770340  59.0071974  25.4671426  47.3531475
  59.7993266  25.1262250  46.9377774  59.2468624  25.5766401  48.2733628
  67.0407100  27.6391202  39.8261719  66.3895080  28.2245282  39.4395733
  67.8351463  28.1697397  39.8856757  60.9662728  24.7280339  40.2248853
  61.7393604  24.1809326  40.0861729  61.3188126  25.5924588  40.4363315
  62.8047770  26.0556721  53.4315753  62.5137636  26.9602352  53.3162419
  63.4404754  26.0973249  54.1459822  63.7303977  23.4333570  50.0217112
  64.3267549  23.2089592  49.3074075  63.7878948  22.6918315  50.6242560
  63.3029005  20.8873005  37.8567303  63.5554526  20.3654526  37.0950766
  62.3653564  20.7239150  37.9593987  68.3472288  19.8908783  45.6642047
  69.1335377  19.4728207  45.3132464  68.6110992  20.7954876  45.8323695
  68.5182366  25.3281634  40.3630703  67.8828198  25.4016260  41.0751608
  68.1879772  25.9175232  39.6849783  73.7480715  19.8284017  46.5675025
  74.4805887  19.2583233  46.8012855  72.9920071  19.4405617  47.0081531
  63.0225294  22.7901111  40.0591678  62.9061552  22.1146014  40.7272763
  63.1327554  22.3033485  39.2423831  65.3656835  22.2511258  43.7638368
  65.0015042  21.7241879  44.4751289  66.2223951  21.8609727  43.5904853
  71.2706136  13.5405591  51.0269634  70.9389460  14.4101002  50.8030849
  70.6751749  13.2241875  51.7063664  65.0062322  17.2801158  38.7599716
  65.1736724  18.1481394  39.1270187  64.8159491  17.4428439  37.8361005
  67.7637655  25.7418137  50.4265546  67.4638378  26.6443175  50.3181354
  67.4188715  25.4750320  51.2786699  61.2150137  22.1931933  46.4602251
  60.2900633  22.0608148  46.6679943  61.4634550  22.9726153  46.9572193
  71.1634799  18.2600677  48.1062984  70.2551676  18.1916085  47.8121745
  71.1122395  18.7372622  48.9344809  64.9851543  19.7358815  39.7446383
  64.8651168  20.1815866  40.5831863  64.2904131  20.0844133  39.1859921
  58.5758948  21.8365207  47.2946040  58.7051329  22.0899686  48.2085452
  57.8956399  22.4292915  46.9750695  62.7458435  32.5062457  43.3936514
  62.6682465  33.4570282  43.4724995  62.1420079  32.1608329  44.0511440
  65.2375665  19.6790322  56.0497881  64.4608999  20.2384243  56.0400746
  65.8766228  20.1647105  56.5712751  73.0296445  16.4617115  49.8840858
  72.3870826  16.7549648  49.2380652  72.5251374  16.3470036  50.6894054
  70.6836609  20.2080288  40.5726717  71.5954465  20.4407675  40.3974414
  70.1746256  20.7917333  40.0101796  63.4922037  22.4875776  55.6115848
  64.2336721  23.0260820  55.3350672  62.7859023  23.1142065  55.7687400
  68.9677377  24.6304916  54.2088010  69.3760733  24.1887327  53.4642642
  68.2454638  24.0557544  54.4622202  65.3208447  19.5677523  51.5821566
  66.1669642  19.9916937  51.7256215  65.2607084  18.9111147  52.2760130
  69.2906191  25.1906107  47.9640298  68.6615054  25.3551821  47.2616366
  68.9031853  25.6047716  48.7351262  73.1695423  26.1260545  45.3184662
  72.4846461  26.5059446  44.7681695  73.2539273  26.7355871  46.0516610
  68.4707892  17.2281891  53.2402740  68.2268824  17.9823952  52.7037016
  68.7467823  17.6067239  54.0749987  70.4246355  23.7720504  51.9180006
  70.6363250  24.4152264  51.2414387  70.3776103  22.9382820  51.4501936
  68.0272584  16.3838324  48.8216578  67.1657063  16.6819578  49.1133315
  68.0535018  16.6008723  47.8897610  64.8434153  24.9280515  45.2290383
  65.3072499  25.2068218  44.4395006  64.5790951  24.0263960  45.0463474
  61.7358234  24.4751997  48.1670147  62.3059591  24.9039265  47.5287631
  62.3266346  24.1934581  48.8654332  63.7803039  21.0503667  42.0379949
  64.4827083  21.5024711  42.5053875  63.4483668  20.4087486  42.6659842
  62.2283401  19.6415424  56.4131158  61.5982061  20.3231705  56.6466555
  62.1219489  19.5298506  55.4684296  57.5228373  19.3087220  47.3397082
  56.7327427  19.5644749  46.8637193  58.0139621  20.1235558  47.4449123
  71.5392183  26.6492459  50.0902363  72.3609627  26.2472646  49.8085045
  71.5354586  26.5460693  51.0418479  59.4743119  19.6731799  44.2980559
  58.6774282  19.7850493  44.8164055  59.2468711  20.0118451  43.4321449
  65.3048786  26.1976502  52.2463074  65.3693219  26.6596910  53.0821245
  64.5959710  25.5673867  52.3745383  55.8066076  19.5617710  49.7712073
  56.0574115  20.4464720  50.0369649  56.3425625  19.3822312  48.9987165
  79.6298176  22.9931208  46.4387334  78.8761884  22.4238606  46.2831339
  79.7645717  22.9593872  47.3857969  65.0196804  27.8644610  42.1142054
  64.8842479  28.7096146  42.5426902  65.5606616  28.0663888  41.3507988
  61.5064144  13.9436190  58.7756409  61.1131089  13.3902388  59.4504053
  62.3230284  14.2546768  59.1662927  58.4726201  25.3820048  42.6869979
  58.9850722  26.1763298  42.8375544  59.1248914  24.6846338  42.6203580
  60.2821086  28.4985804  44.7692732  60.4587714  29.4203769  44.5813716
  61.0777920  28.1844223  45.1987112  64.4232105  15.3594069  56.3676666
  65.1641818  15.9601222  56.2881128  64.6550027  14.6171707  55.8094708
  59.5673443  20.5450436  54.6454895  59.4526958  19.6435693  54.9461994
  58.7117960  20.7914133  54.2939712  66.6465280  28.4868176  56.2442396
  66.2029134  27.7004555  55.9263300  67.3082494  28.6747327  55.5786287
  61.4052401  30.0163978  50.7703074  61.9559827  29.8881041  49.9980068
  60.5663877  30.3158867  50.4197967  68.7446518  28.7670976  54.2723797
  68.7264994  29.5879857  53.7804066  69.6666438  28.6425052  54.4973938
  65.2019573  26.2815106  55.1147306  65.7347909  25.5203394  54.8846614
  64.6733654  25.9888758  55.8571460  68.3689267  11.3875172  50.6440947
  68.0253537  12.2776814  50.5680058  68.7368230  11.1976829  49.7810532
  56.4375118  23.7108702  43.4629549  57.2750340  24.1205711  43.2463257
  56.6153386  22.7708144  43.4329743  68.3339550  21.3783783  39.1513382
  67.8186174  22.1488388  39.3901770  68.0616859  20.7048919  39.7746444
  65.9186661  16.2233484  44.2098621  65.0628258  15.8340334  44.0304259
  66.3313613  16.3025445  43.3498406  67.4485808  13.7579827  48.6090181
  66.9450603  13.7209962  47.7957986  67.7416415  14.6672570  48.6686837
  63.6928694  13.8418557  47.6156362  64.5581691  13.6461365  47.2562252
  63.7606203  13.6128908  48.5425719  73.3073824  24.1316138  41.0866556
  72.5303267  23.7927297  40.6421718  73.9865305  24.1368761  40.4121521
  68.1225853  19.2510875  40.9773164  67.8175989  19.5657024  41.8283307
  69.0756295  19.3292295  41.0200497  66.5672285  25.4101098  42.6266118
  66.0393647  24.6753858  42.3139355  66.0659788  26.1875775  42.3806086
  71.5465131  23.6050119  47.7433164  70.8888806  24.2949380  47.8313293
  72.3505530  23.9946551  48.0867150  61.2991013  16.0720765  44.9872729
  61.8734765  15.8495946  44.2545922  61.8861995  16.1409459  45.7401330
  70.3570590  21.9594492  45.7937106  70.8702472  22.5924483  46.2958815
  71.0071814  21.3595687  45.4280466  61.6260600  18.1025226  39.0068614
  60.7897912  18.4399912  39.3277889  61.4865370  17.9674205  38.0695751
  63.6013681  12.9462014  43.7147799  62.9478093  12.6311031  43.0904413
  63.5594155  12.3237754  44.4407621  64.7124885  23.2281309  35.6301091
  63.8051947  22.9970562  35.8292240  65.2095917  22.4318928  35.8175072
  67.6192964  31.9378816  38.5497777  66.9454663  32.2410513  39.1582735
  68.0058786  32.7407896  38.2003234  66.8351421  19.4343947  48.0395446
  65.9173982  19.6558894  47.8817134  67.2511565  19.5090258  47.1807153
  67.6186469  20.8335363  43.1698126  68.3658288  21.3456760  42.8605248
  67.8878058  20.5119415  44.0302520  65.8913119  23.3293903  40.1525081
  64.9824338  23.0452936  40.2497550  65.9208203  23.7492982  39.2928388
  71.1232386  26.9400493  43.9216248  70.6694713  26.0991403  43.9781439
  70.4926353  27.5761891  44.2591028  70.0665306  17.8692479  45.1516916
  69.3288063  17.3569865  45.4827158  70.3192079  17.4292861  44.3400193
  69.5665325  28.7776990  44.8566066  69.8588300  29.3382047  44.1378432
  70.0763946  29.0705551  45.6119226  70.1676933  10.6468731  45.7458685
  70.4735810   9.7866094  45.4584600  70.8929538  11.2386351  45.5457679
  56.4601289  21.0499418  44.1340283  56.2625689  20.4568778  43.4091349
  55.9047953  20.7451628  44.8516222  64.4398013  20.9422524  46.2534876
  64.4946623  19.9896360  46.1777353  63.6289215  21.0981963  46.7376174
  65.5889207  24.8702647  37.4913159  65.1508637  24.1538506  37.0318797
  66.3299647  25.0978762  36.9298251  62.3790373  19.5599584  44.0125255
  61.5658238  19.8593754  44.4190447  62.8749367  19.1655273  44.7299737
  64.5298951  29.5557341  45.9459520  64.4875129  29.7818187  45.0168052
  65.4461650  29.3220715  46.0945321  67.9764584  20.0241408  52.8440149
  68.3313972  20.2512881  53.7034615  68.6236716  20.3559785  52.2217404
  73.7062321  23.1459844  43.5489478  73.5680220  23.3361440  42.6210667
  73.3498540  23.9079227  44.0057529  61.8704448  17.1317939  49.6286490
  62.5103827  16.9906698  48.9309453  61.0381978  16.8452453  49.2525092
  73.7331701  25.2136371  48.5600749  74.1668208  25.1211660  49.4083803
  74.4463282  25.1893872  47.9220765  62.6464751  26.4320370  45.7421482
  63.4405350  25.9370690  45.5404057  61.9356444  25.9038233  45.3789188
  67.4659596  28.8138465  50.0933850  67.5196618  29.3829402  50.8611566
  66.5974377  28.9840350  49.7287887  58.9547515  20.5763452  41.8181235
  58.0245103  20.5147907  42.0351197  59.0504987  20.0539404  41.0217876
  58.8733064  17.1018264  44.4059477  59.1339881  18.0163598  44.2968637
  59.6950236  16.6342707  44.5556089  60.3457989  18.5156022  51.5758301
  61.0181043  18.3073384  50.9270950  59.5187776  18.3178108  51.1363533
  74.5947251  25.2560072  51.0933635  74.7883141  26.1605882  51.3392910
  74.4947869  24.7967491  51.9272220  66.2483561  15.1417962  53.5923962
  65.6011476  15.8407912  53.4988438  67.0184577  15.5754106  53.9600210
  69.6562359  25.4066815  56.6674515  69.5047866  25.1777366  55.7504599
  69.6467039  26.3637416  56.6805860  66.4247696  22.9798727  51.6520782
  67.3539756  23.1309887  51.4789749  66.0038726  23.0682748  50.7969428
  65.2236027  27.0049392  49.4219319  65.0847113  26.6368176  50.2945258
  64.4350624  27.5197031  49.2503277  65.8184179  32.1058488  40.7644856
  65.9935935  31.6346531  41.5790479  65.1316967  32.7324254  40.9926117
  66.7741243  26.3830994  46.8108157  66.4391075  26.3431764  47.7065807
  66.2745188  25.7175710  46.3378567  60.7485487  21.7898624  52.3360738
  60.6105284  21.0578863  52.9372277  61.6590410  21.7007525  52.0544926
  69.7100434  23.7287029  37.0845217  69.0929605  23.0033857  36.9878270
  69.2416923  24.4896389  36.7412291  63.3767787  21.5018584  51.8244418
  64.0867406  20.8611776  51.7831036  63.3337095  21.7531479  52.7470599
  71.3654566  28.4385937  54.7450997  71.3067112  27.7545157  54.0781580
  71.7674084  29.1804927  54.2931623  62.0896721  18.4883802  53.6440057
  61.5534078  18.0374540  54.2961654  61.5013430  18.6229711  52.9010522
  60.3845265  35.2547851  47.5384716  60.6241863  35.8866375  48.2163735
  59.5414461  34.9035891  47.8250075  61.4998980  17.9472453  36.2066521
  60.6228446  17.8261254  35.8428768  61.9756733  17.1558531  35.9545410
  71.3671973  26.4025521  52.9764977  70.4798752  26.0651443  53.0991376
  71.9370524  25.6708552  53.2133742  53.0201120  22.7349613  46.3008028
  53.7072160  22.4211343  45.7129044  52.8649249  23.6390977  46.0275280
  57.8235842  17.6239809  50.7293052  57.7394031  17.0165479  49.9943462
  57.0018549  18.1148828  50.7302548  64.8973127  31.0626973  49.9426220
  64.8243298  31.8681945  50.4545525  64.4550520  31.2618939  49.1174241
  64.6862906  30.2998743  43.4529042  63.9030428  30.8420424  43.5467266
  65.3855651  30.8172723  43.8523283  67.9959556  16.1093373  46.0963247
  68.4928256  15.3563335  45.7764317  67.2246538  16.1457690  45.5306456
  75.8489314  21.8133738  47.7381539  75.8379190  22.6958454  47.3675472
  74.9806693  21.4605289  47.5436076  67.3571810  30.9613807  52.0984379
  68.0699782  31.5961272  52.0260280  66.8661839  31.0577673  51.2824381
  69.0789337  24.8665060  43.6701670  68.1445616  24.9866523  43.5006375
  69.2566005  23.9637527  43.4061680  64.5794525  18.2510756  45.8234932
  64.2092313  17.6981796  46.5115837  65.0753618  17.6468889  45.2709932
  72.4661888  20.7082379  44.2051705  72.9322341  21.5410371  44.1312007
  72.9169389  20.2427361  44.9096963  70.5338119  27.0526201  41.2037857
  70.8097963  26.9382795  42.1131731  69.6642618  26.6543686  41.1650030
  70.4378551  13.0762966  48.2442606  69.5241631  13.3067193  48.4124813
  70.8671653  13.1601410  49.0956638  70.2085010  21.2652858  50.7442500
  69.5556460  21.5128766  50.0894953  70.5865389  20.4516997  50.4104977
  67.1692183  31.3012552  44.8470670  67.3514578  30.4834207  45.3098423
  67.9925169  31.5180244  44.4095560  67.5034349  30.2280737  42.1085719
  68.0322115  29.7173191  41.4955881  67.7662569  29.9123267  42.9731252
  66.2572583  22.0072669  57.2308537  65.5813220  21.9066799  57.9010912
  67.0800216  21.8511883  57.6944534  58.0051442  28.2444606  49.8521052
  58.5904878  27.4988294  49.9848956  57.8076280  28.5548563  50.7357716
  60.8590097  31.2795853  44.8683495  60.1900472  31.7641981  44.3847535
  60.7202967  31.5265074  45.7826873  52.5969096  20.8150206  48.5725495
  52.6353196  20.2813797  49.3662614  52.0909389  20.2885412  47.9536473
  64.9995365  33.3139597  51.4666153  65.5513674  33.4771218  52.2315238
  65.3401559  33.9044035  50.7946178  59.9759859  15.6614747  52.0688038
  60.0401185  16.5229578  51.6565435  59.9126979  15.0488748  51.3360396
  59.4512131  17.7337879  55.7161072  60.0784170  17.3514957  56.3298596
  58.5940050  17.5152081  56.0816764  69.8506240  28.1400854  57.3214807
  70.3946144  28.7530813  56.8269762  69.2693085  28.6980433  57.8381820
  56.2277674  19.5414308  41.6479427  56.5231115  18.6324987  41.5946480
  55.3265710  19.5202048  41.3260429  68.1363753  31.2621572  48.4529835
  68.0114892  30.4611312  47.9440781  68.7942844  31.7567766  47.9643805
  59.7571921  17.6170305  47.6306975  59.0358507  18.2306273  47.4914449
  60.5465177  18.1528070  47.5523621  70.1998661  29.0630593  50.0809385
  69.2528997  28.9435944  50.0087712  70.5481434  28.1753091  50.1635647
  62.5598235  14.9524731  53.9047627  63.0832636  15.1987028  54.6673936
  62.3410568  15.7844766  53.4850764  57.9565516  17.2228406  41.7718752
  57.6278222  16.3425785  41.5893858  58.3104886  17.1676075  42.6595141
  67.2045094  28.8583309  46.2813737  67.0570057  27.9300016  46.4621308
  68.0298588  28.8803399  45.7970813  61.0707339  17.5101376  42.1394230
  61.4103411  18.0387297  41.4172838  61.5179459  17.8481782  42.9152796
  70.8079216  29.6811867  47.3678610  71.7325764  29.4754729  47.2303061
  70.6394520  29.4328269  48.2767952  63.7650780  15.8938427  51.5897298
  63.4247600  15.0946240  51.9917978  63.0589786  16.1940137  51.0174131
  64.4167251  12.9787739  50.0424621  65.2393321  12.5048217  49.9203511
  64.6605315  13.7578223  50.5423307  63.0575486  16.0075997  40.3387522
  63.7783848  16.3857250  39.8351239  62.4340790  16.7264874  40.4422500
  67.2006609  16.7121146  41.2745855  67.4170223  17.5945784  40.9734683
  66.7200676  16.3207360  40.5451497  61.9405830  19.6706860  47.8516599
  61.7950411  19.9847163  48.7440881  61.4631034  20.2891760  47.2987498
  63.8002213  16.6609408  47.8997489  63.7863782  15.7650501  47.5629787
  64.5174641  16.6680071  48.5335775  65.6528344  17.0946748  49.9450616
  65.3946122  18.0163818  49.9434947  65.1213384  16.6977182  50.6351080
  70.5974532  30.1997535  42.7240702  70.7711410  29.6343957  41.9714554
  71.0903424  30.9998430  42.5420192  56.4151492  22.2112204  50.7904260
  55.8704960  22.9872012  50.9224535  57.2930842  22.5583008  50.6323382
  63.2039109  15.5423788  43.1685059  63.3255020  14.6140434  43.3675947
  62.9141151  15.5562474  42.2563374  66.0730299  13.2278698  46.3051779
  66.0951996  13.2918031  45.3503758  66.4898358  12.3883207  46.4992285
  76.4513924  22.9633958  44.3431001  76.8945070  22.2141283  43.9450125
  75.5740434  22.9544094  43.9604733  71.5849705  29.5164299  39.8237600
  72.2800610  30.1370992  40.0424915  71.9272855  28.6659651  40.0989978
  57.2017514  21.3382100  53.6834417  56.4599250  21.4864736  54.2699048
  56.8810258  21.5990366  52.8201167  73.4841128  26.9664005  41.3524931
  74.0092452  27.3051278  40.6274251  73.3963481  26.0311020  41.1688065
  65.1461177  30.8798078  53.4814807  65.4548303  30.6347225  54.3537507
  65.9436659  31.0844717  52.9933678  65.1681789  33.0335988  45.7120184
  64.7286779  32.5412367  46.4053041  65.9189906  32.4908956  45.4712259
  57.6474128  29.2247529  45.7144812  58.4732148  28.9251301  45.3343456
  57.2968180  28.4555151  46.1634601  62.6155661  28.5773997  47.7842486
  61.9935670  27.9144702  47.4844713  63.2860528  28.6035129  47.1016133
  55.8482733  27.1433855  46.6733746  55.0114641  26.7156030  46.4917747
  55.8206378  27.3366299  47.6104537  62.6880188  17.0555785  57.3774992
  62.7368344  17.9317908  56.9952761  63.2302703  16.5133178  56.8046635
  73.1735034  27.5996908  56.6576129  72.3830578  27.5821047  56.1180628
  72.9368389  28.1385202  57.4125165  73.2932909  24.4489375  53.9708857
  73.3430914  24.2839382  54.9124380  73.1846833  23.5816634  53.5806738
  62.1769168  27.1277921  41.2600946  62.3257288  27.8113385  40.6067619
  62.9835611  27.1083011  41.7750402  70.5836672  20.4320303  55.2868164
  71.4846534  20.2926768  54.9952162  70.6584646  20.5974758  56.2266341
  64.9179477  17.8087158  54.1321350  64.0482786  18.1020724  53.8603939
  65.1538957  18.3927603  54.8528614  74.7951106  26.8686316  54.2150879
  74.5035914  27.2316297  55.0514340  74.1823237  26.1553325  54.0364211
  75.9946788  24.4339196  46.7353449  76.8293680  24.8729000  46.8991009
  76.1305917  23.9577849  45.9161695  73.0438294  21.9918931  52.6830937
  73.5192416  22.1846577  51.8749788  72.1203860  22.0478117  52.4374320
  59.9321801  23.1543098  42.2662015  59.6867843  22.2505428  42.4642225
  60.1017715  23.1560249  41.3241493  67.6218511  14.0266775  51.6486771
  68.1400455  14.7627801  51.3233259  67.2673644  14.3330768  52.4833530
  59.2017448  18.8871456  39.7648177  58.5086693  18.9615811  39.1088212
  58.9569200  18.1231799  40.2869693  67.8731105  10.4467057  47.1687667
  68.1532859   9.7790246  47.7948094  68.6581712  10.6396153  46.6562331
  65.6764573  29.6226051  38.7312694  65.1038541  30.2416238  38.2783165
  66.2497367  30.1725413  39.2652616  71.7439963  18.8684691  50.9159242
  72.6957386  18.9682789  50.9371466  71.5743414  18.0762960  51.4257327
  69.7654343  15.9540274  51.1018643  69.1704275  16.2345287  50.4065132
  69.4804039  16.4434175  51.8735384  68.8961833  29.9063201  39.8621276
  69.8292506  29.8408763  40.0654151  68.8085046  30.7419468  39.4035808
  71.5249850  29.2229071  36.8225223  71.4463481  28.8888935  37.7160981
  72.3459517  29.7150839  36.8216696  74.2228041  22.0890811  50.0301542
  74.1904361  21.1506812  50.2161226  74.8328665  22.1674847  49.2967367
  66.0611372  20.9586864  36.0728746  67.0070477  20.8293072  36.1417164
  65.6825617  20.2201526  36.5498174  74.3722530  18.8801854  50.0759825
  73.8561578  18.0960311  49.8889754  75.2562478  18.5520571  50.2406345
  72.0333256  12.6242870  46.0355638  71.8358078  12.3157958  46.9198970
  72.6432962  13.3504509  46.1653568  80.0404591  23.1506818  49.1707579
  80.7707979  22.8892106  49.7315282  79.4311536  22.4135540  49.2109647
  78.1219888  21.2914680  49.7682030  77.3953052  21.1570645  49.1598522
  77.7067175  21.5991509  50.5738748  65.9450064  25.0104610  57.5329403
  66.8653074  25.1883209  57.7269450  65.9099648  24.0660655  57.3809102
  64.2454289  18.8836840  36.0083631  63.3385744  18.5869953  36.0846345
  64.5230270  18.5866658  35.1417918  55.1632229  20.2043204  46.4582678
  54.8435014  19.3508512  46.1657052  54.6165658  20.4191782  47.2140645
  58.9412137  22.9205645  50.1752184  59.1598147  23.8522752  50.1940218
  59.3537911  22.5613619  50.9606988  65.8616355  13.4273730  42.1627873
  65.0517083  13.0820815  42.5383119  66.5500772  13.1181274  42.7515484
  67.7906903  12.5051777  43.7852169  68.3437942  12.9247230  44.4442192
  68.0276989  11.5787525  43.8275125  63.8140002  18.4938850  59.5654933
  63.7136729  19.4433207  59.4967024  63.5961544  18.1657089  58.6931003
  63.0153074  15.7423775  36.1495610  63.8772238  16.0678674  36.4091428
  63.2003418  14.9555271  35.6368676  55.0320489  23.8246115  48.4275799
  54.3383961  23.4100068  47.9145754  55.7793480  23.8666652  47.8309218
  71.1685710  14.6152302  43.2930833  70.5884379  15.2737106  42.9108886
  70.9021643  13.7929646  42.8818251  69.6189277  14.0157360  45.4952154
  70.1189055  14.1273894  44.6866473  70.2624884  13.7118412  46.1352962
  63.6771272  21.9235989  58.3819995  63.1938354  22.7236349  58.5883884
  63.7632211  21.9343934  57.4287439  56.9457232  23.7564369  46.3041814
  56.9227920  23.8552056  45.3523697  57.2557868  24.6029520  46.6258980
  59.6044610  25.8140524  50.4188429  60.5587863  25.7824466  50.3518360
  59.4057133  25.3531148  51.2338654  60.1943992  24.3841640  52.9859226
  61.0136881  24.8785719  53.0094064  60.4680800  23.4673608  52.9576794
  69.9510588  16.7752392  42.3487182  69.0636443  17.0602043  42.1307376
  70.3664577  16.6146156  41.5014459  73.3025124  16.7998913  46.0641521
  74.0785514  17.2895366  46.3366138  72.5773259  17.2256967  46.5213390
  75.7397683  17.5126532  47.1215462  76.3342174  17.2722268  46.4108770
  75.8124267  16.7933663  47.7488998  57.9594839  31.3560143  47.4358626
  57.8249307  30.5960544  46.8696624  57.5426901  32.0801043  46.9687415
  69.0953802  26.5397067  36.4435202  69.7989652  26.7447069  37.0592857
  68.3716450  27.1073829  36.7084285  69.9251612  22.2906928  42.5637472
  69.8686813  22.7475480  41.7245104  70.4779954  21.5297613  42.3860315
  73.7356418  18.0796660  43.3887591  73.4793352  17.6793296  44.2195799
  73.1109286  18.7940454  43.2637731  78.0468756  20.8192733  45.8958883
  77.4868314  20.8885923  46.6690445  77.4412259  20.6433718  45.1758379
  61.1163965  32.2529460  47.6477069  60.9996349  33.1974893  47.5455759
  60.2956411  31.9503022  48.0362868  71.0040499  26.9779596  38.4933662
  71.8386103  26.5460795  38.3111137  70.8424842  26.8061610  39.4210556
  70.6586391  23.4811709  39.8590001  70.6035195  23.3155981  38.9178445
  70.0332447  24.1887742  40.0152191  55.4478906  18.7179774  53.6851423
  56.0937770  18.2078728  54.1738648  55.2396057  19.4548455  54.2594849
  67.9732298  25.7860621  59.1843564  68.8423458  25.9601274  58.8230199
  67.4939050  26.6055038  59.0619293  63.9682517  12.9819818  39.4375319
  63.9561187  13.9261658  39.5943590  64.8605939  12.7989964  39.1434781
  62.1418479  32.9057722  50.8632998  63.0445725  32.9381333  51.1799492
  61.9155849  31.9758173  50.8779333  63.8972081  31.6588709  47.5243076
  62.9467712  31.6590570  47.4107448  64.2004567  30.9121443  47.0079111
  67.7834636   9.5762595  43.6921256  67.0167032   9.0221082  43.8377939
  68.1945341   9.6484464  44.5535408  59.7876397  15.8647391  57.7826438
  60.6507859  15.5084196  57.9929762  59.2141808  15.5261286  58.4701842
  79.6324774  37.4949247  48.5888839  80.2703184  37.3755995  47.8852179
  79.5145617  38.4430091  48.6476791  76.4414480  37.4476675  48.5250363
  76.1032992  37.3317740  47.6370898  77.3104249  37.0467840  48.5051369
  72.3001296  39.3012152  44.5147254  71.7366161  39.2102089  43.7463542
  72.1853691  38.4812056  44.9949747  76.9234263  38.6011527  54.4836569
  76.9122904  38.2064325  53.6117072  77.0854903  37.8677600  55.0770340
  69.8465728  40.7963343  47.3531475  70.6387020  40.4554168  46.9377774
  70.0862378  40.9058318  48.2733628  77.8800855  42.9683119  39.8261719
  77.2288835  43.5537200  39.4395733  78.6745218  43.4989314  39.8856757
  71.8056482  40.0572257  40.2248853  72.5787358  39.5101244  40.0861729
  72.1581881  40.9216506  40.4363315  73.6441525  41.3848639  53.4315753
  73.3531391  42.2894270  53.3162419  74.2798509  41.4265166  54.1459822
  74.5697731  38.7625487  50.0217112  75.1661304  38.5381510  49.3074075
  74.6272703  38.0210233  50.6242560  74.1422760  36.2164923  37.8567303
  74.3948281  35.6946444  37.0950766  73.2047319  36.0531068  37.9593987
  79.1866043  35.2200701  45.6642047  79.9729132  34.8020124  45.3132464
  79.4504747  36.1246793  45.8323695  79.3576120  40.6573551  40.3630703
  78.7221953  40.7308178  41.0751608  79.0273526  41.2467150  39.6849783
  84.5874470  35.1575934  46.5675025  85.3199642  34.5875151  46.8012855
  83.8313825  34.7697535  47.0081531  73.8619049  38.1193029  40.0591678
  73.7455307  37.4437932  40.7272763  73.9721308  37.6325403  39.2423831
  76.2050590  37.5803176  43.7638368  75.8408797  37.0533797  44.4751289
  77.0617705  37.1901645  43.5904853  82.1099890  28.8697508  51.0269634
  81.7783215  29.7392919  50.8030849  81.5145504  28.5533792  51.7063664
  75.8456076  32.6093075  38.7599716  76.0130479  33.4773312  39.1270187
  75.6553246  32.7720357  37.8361005  78.6031410  41.0710054  50.4265546
  78.3032133  41.9735093  50.3181354  78.2582469  40.8042238  51.2786699
  72.0543891  37.5223851  46.4602251  71.1294388  37.3900065  46.6679943
  72.3028304  38.3018070  46.9572193  82.0028553  33.5892595  48.1062984
  81.0945431  33.5208003  47.8121745  81.9516149  34.0664539  48.9344809
  75.8245297  35.0650733  39.7446383  75.7044923  35.5107784  40.5831863
  75.1297886  35.4136051  39.1859921  69.4152702  37.1657125  47.2946040
  69.5445083  37.4191604  48.2085452  68.7350153  37.7584833  46.9750695
  73.5852189  47.8354375  43.3936514  73.5076219  48.7862200  43.4724995
  72.9813833  47.4900247  44.0511440  83.8690200  31.7909033  49.8840858
  83.2264580  32.0841566  49.2380652  83.3645128  31.6761953  50.6894054
  81.5230364  35.5372206  40.5726717  82.4348220  35.7699593  40.3974414
  81.0140011  36.1209250  40.0101796  74.3315792  37.8167693  55.6115848
  75.0730476  38.3552737  55.3350672  73.6252777  38.4433982  55.7687400
  79.8071131  39.9596834  54.2088010  80.2154487  39.5179244  53.4642642
  79.0848393  39.3849461  54.4622202  76.1602201  34.8969441  51.5821566
  77.0063396  35.3208854  51.7256215  76.1000839  34.2403065  52.2760130
  80.1299946  40.5198025  47.9640298  79.5008808  40.6843739  47.2616366
  79.7425608  40.9339634  48.7351262  84.0089178  41.4552462  45.3184662
  83.3240216  41.8351364  44.7681695  84.0933027  42.0647789  46.0516610
  79.3101647  32.5573809  53.2402740  79.0662578  33.3115870  52.7037016
  79.5861577  32.9359157  54.0749987  81.2640109  39.1012421  51.9180006
  81.4757005  39.7444181  51.2414387  81.2169858  38.2674738  51.4501936
  78.8666338  31.7130242  48.8216578  78.0050817  32.0111496  49.1133315
  78.8928773  31.9300641  47.8897610  75.6827908  40.2572433  45.2290383
  76.1466253  40.5360136  44.4395006  75.4184706  39.3555877  45.0463474
  72.5751989  39.8043914  48.1670147  73.1453346  40.2331183  47.5287631
  73.1660101  39.5226499  48.8654332  74.6196794  36.3795585  42.0379949
  75.3220837  36.8316629  42.5053875  74.2877422  35.7379404  42.6659842
  73.0677155  34.9707342  56.4131158  72.4375816  35.6523622  56.6466555
  72.9613243  34.8590423  55.4684296  68.3622128  34.6379138  47.3397082
  67.5721182  34.8936666  46.8637193  68.8533375  35.4527476  47.4449123
  82.3785937  41.9784377  50.0902363  83.2003381  41.5764564  49.8085045
  82.3748340  41.8752611  51.0418479  70.3136873  35.0023717  44.2980559
  69.5168036  35.1142411  44.8164055  70.0862465  35.3410369  43.4321449
  76.1442541  41.5268420  52.2463074  76.2086973  41.9888827  53.0821245
  75.4353465  40.8965785  52.3745383  66.6459831  34.8909628  49.7712073
  66.8967869  35.7756638  50.0369649  67.1819379  34.7114230  48.9987165
  90.4691930  38.3223125  46.4387334  89.7155639  37.7530523  46.2831339
  90.6039472  38.2885790  47.3857969  75.8590558  43.1936528  42.1142054
  75.7236233  44.0388063  42.5426902  76.4000371  43.3955805  41.3507988
  72.3457898  29.2728107  58.7756409  71.9524844  28.7194306  59.4504053
  73.1624038  29.5838686  59.1662927  69.3119956  40.7111966  42.6869979
  69.8244476  41.5055216  42.8375544  69.9642669  40.0138256  42.6203580
  71.1214840  43.8277722  44.7692732  71.2981469  44.7495687  44.5813716
  71.9171674  43.5136141  45.1987112  75.2625859  30.6885987  56.3676666
  76.0035572  31.2893140  56.2881128  75.4943782  29.9463624  55.8094708
  70.4067197  35.8742354  54.6454895  70.2920712  34.9727611  54.9461994
  69.5511715  36.1206051  54.2939712  79.5840273  44.0962894  54.2723797
  79.5658748  44.9171775  53.7804066  80.5060193  43.9716969  54.4973938
  76.0413327  41.6107024  55.1147306  76.5741664  40.8495312  54.8846614
  75.5127408  41.3180675  55.8571460  79.2083022  26.7167090  50.6440947
  78.8647291  27.6068731  50.5680058  79.5761985  26.5268747  49.7810532
  67.2768873  39.0400620  43.4629549  68.1144095  39.4497628  43.2463257
  67.4547140  38.1000062  43.4329743  79.1733305  36.7075701  39.1513382
  78.6579928  37.4780305  39.3901770  78.9010613  36.0340837  39.7746444
  76.7580416  31.5525401  44.2098621  75.9022012  31.1632252  44.0304259
  77.1707367  31.6317362  43.3498406  78.2879562  29.0871745  48.6090181
  77.7844358  29.0501880  47.7957986  78.5810169  29.9964487  48.6686837
  74.5322448  29.1710474  47.6156362  75.3975445  28.9753283  47.2562252
  74.5999957  28.9420826  48.5425719  84.1467579  39.4608055  41.0866556
  83.3697022  39.1219215  40.6421718  84.8259060  39.4660678  40.4121521
  78.9619608  34.5802793  40.9773164  78.6569743  34.8948942  41.8283307
  79.9150050  34.6584213  41.0200497  77.4066040  40.7393016  42.6266118
  76.8787401  40.0045776  42.3139355  76.9053542  41.5167692  42.3806086
  82.3858886  38.9342037  47.7433164  81.7282560  39.6241298  47.8313293
  83.1899285  39.3238468  48.0867150  72.1384767  31.4012682  44.9872729
  72.7128519  31.1787864  44.2545922  72.7255750  31.4701377  45.7401330
  81.1964345  37.2886409  45.7937106  81.7096226  37.9216401  46.2958815
  81.8465568  36.6887605  45.4280466  72.4654354  33.4317143  39.0068614
  71.6291667  33.7691830  39.3277889  72.3259124  33.2966123  38.0695751
  74.4407435  28.2753931  43.7147799  73.7871847  27.9602948  43.0904413
  74.3987909  27.6529672  44.4407621  75.5518640  38.5573226  35.6301091
  74.6445702  38.3262480  35.8292240  76.0489672  37.7610846  35.8175072
  78.4586719  47.2670733  38.5497777  77.7848418  47.5702430  39.1582735
  78.8452541  48.0699814  38.2003234  77.6745175  34.7635865  48.0395446
  76.7567737  34.9850812  47.8817134  78.0905319  34.8382175  47.1807153
  78.4580223  36.1627280  43.1698126  79.2052042  36.6748678  42.8605248
  78.7271813  35.8411333  44.0302520  76.7306873  38.6585821  40.1525081
  75.8218093  38.3744854  40.2497550  76.7601957  39.0784900  39.2928388
  81.9626141  42.2692411  43.9216248  81.5088468  41.4283321  43.9781439
  81.3320107  42.9053809  44.2591028  80.9059060  33.1984397  45.1516916
  80.1681817  32.6861783  45.4827158  81.1585834  32.7584778  44.3400193
  80.4059080  44.1068907  44.8566066  80.6982054  44.6673964  44.1378432
  80.9157701  44.3997468  45.6119226  81.0070688  25.9760649  45.7458685
  81.3129564  25.1158012  45.4584600  81.7323292  26.5678269  45.5457679
  67.2995044  36.3791335  44.1340283  67.1019444  35.7860696  43.4091349
  66.7441708  36.0743545  44.8516222  75.2791767  36.2714442  46.2534876
  75.3340377  35.3188278  46.1777353  74.4682969  36.4273881  46.7376174
  76.4282961  40.1994565  37.4913159  75.9902391  39.4830424  37.0318797
  77.1693402  40.4270680  36.9298251  73.2184127  34.8891502  44.0125255
  72.4051993  35.1885672  44.4190447  73.7143121  34.4947190  44.7299737
  75.3692705  44.8849258  45.9459520  75.3268884  45.1110105  45.0168052
  76.2855404  44.6512633  46.0945321  78.8158339  35.3533326  52.8440149
  79.1707727  35.5804799  53.7034615  79.4630470  35.6851703  52.2217404
  84.5456076  38.4751762  43.5489478  84.4073974  38.6653358  42.6210667
  84.1892295  39.2371145  44.0057529  72.7098202  32.4609857  49.6286490
  73.3497581  32.3198616  48.9309453  71.8775733  32.1744370  49.2525092
  84.5725456  40.5428289  48.5600749  85.0061962  40.4503578  49.4083803
  85.2857036  40.5185789  47.9220765  73.4858506  41.7612287  45.7421482
  74.2799104  41.2662608  45.5404057  72.7750198  41.2330151  45.3789188
  78.3053350  44.1430383  50.0933850  78.3590373  44.7121319  50.8611566
  77.4368132  44.3132268  49.7287887  69.7941269  35.9055369  41.8181235
  68.8638857  35.8439825  42.0351197  69.8898741  35.3831322  41.0217876
  69.7126818  32.4310182  44.4059477  69.9733636  33.3455515  44.2968637
  70.5343991  31.9634625  44.5556089  71.1851744  33.8447939  51.5758301
  71.8574797  33.6365301  50.9270950  70.3581530  33.6470025  51.1363533
  85.4341005  40.5851990  51.0933635  85.6276895  41.4897800  51.3392910
  85.3341623  40.1259409  51.9272220  77.0877316  30.4709880  53.5923962
  76.4405231  31.1699830  53.4988438  77.8578331  30.9046024  53.9600210
  77.2641450  38.3090645  51.6520782  78.1933510  38.4601805  51.4789749
  76.8432480  38.3974666  50.7969428  76.0629782  42.3341309  49.4219319
  75.9240868  41.9660094  50.2945258  75.2744378  42.8488949  49.2503277
  76.6577934  47.4350406  40.7644856  76.8329690  46.9638449  41.5790479
  75.9710722  48.0616172  40.9926117  77.6134997  41.7122912  46.8108157
  77.2784830  41.6723682  47.7065807  77.1138943  41.0467628  46.3378567
  71.5879241  37.1190542  52.3360738  71.4499039  36.3870781  52.9372277
  72.4984165  37.0299442  52.0544926  80.5494189  39.0578946  37.0845217
  79.9323359  38.3325775  36.9878270  80.0810677  39.8188307  36.7412291
  74.2161542  36.8310501  51.8244418  74.9261160  36.1903694  51.7831036
  74.1730850  37.0823396  52.7470599  82.2048320  43.7677855  54.7450997
  82.1460867  43.0837075  54.0781580  82.6067839  44.5096845  54.2931623
  72.9290476  33.8175719  53.6440057  72.3927833  33.3666458  54.2961654
  72.3407184  33.9521628  52.9010522  71.2239019  50.5839769  47.5384716
  71.4635617  51.2158293  48.2163735  70.3808216  50.2327809  47.8250075
  72.3392735  33.2764371  36.2066521  71.4622201  33.1553172  35.8428768
  72.8150488  32.4850449  35.9545410  82.2065728  41.7317439  52.9764977
  81.3192506  41.3943361  53.0991376  82.7764279  41.0000470  53.2133742
  63.8594875  38.0641531  46.3008028  64.5465915  37.7503261  45.7129044
  63.7043003  38.9682895  46.0275280  68.6629597  32.9531727  50.7293052
  68.5787786  32.3457397  49.9943462  67.8412303  33.4440745  50.7302548
  75.5256661  45.6290661  43.4529042  74.7424183  46.1712341  43.5467266
  76.2249406  46.1464641  43.8523283  78.8353311  31.4385291  46.0963247
  79.3322010  30.6855253  45.7764317  78.0640292  31.4749607  45.5306456
  86.6883068  37.1425656  47.7381539  86.6772944  38.0250372  47.3675472
  85.8200448  36.7897207  47.5436076  78.1965565  46.2905725  52.0984379
  78.9093537  46.9253190  52.0260280  77.7055593  46.3869591  51.2824381
  79.9183091  40.1956978  43.6701670  78.9839370  40.3158440  43.5006375
  80.0959760  39.2929445  43.4061680  75.4188280  33.5802674  45.8234932
  75.0486067  33.0273714  46.5115837  75.9147372  32.9760807  45.2709932
  83.3055643  36.0374297  44.2051705  83.7716095  36.8702289  44.1312007
  83.7563143  35.5719279  44.9096963  81.3731874  42.3818118  41.2037857
  81.6491718  42.2674713  42.1131731  80.5036373  41.9835603  41.1650030
  81.2772306  28.4054884  48.2442606  80.3635385  28.6359111  48.4124813
  81.7065407  28.4893328  49.0956638  81.0478764  36.5944776  50.7442500
  80.3950214  36.8420684  50.0894953  81.4259144  35.7808914  50.4104977
  78.0085938  46.6304469  44.8470670  78.1908332  45.8126125  45.3098423
  78.8318924  46.8472161  44.4095560  78.3428103  45.5572654  42.1085719
  78.8715870  45.0465109  41.4955881  78.6056323  45.2415185  42.9731252
  68.8445196  43.5736524  49.8521052  69.4298633  42.8280212  49.9848956
  68.6470035  43.8840480  50.7357716  71.6983851  46.6087771  44.8683495
  71.0294227  47.0933899  44.3847535  71.5596721  46.8556991  45.7826873
  63.4362851  36.1442124  48.5725495  63.4746950  35.6105715  49.3662614
  62.9303144  35.6177329  47.9536473  70.8153613  30.9906664  52.0688038
  70.8794940  31.8521495  51.6565435  70.7520733  30.3780666  51.3360396
  70.2905886  33.0629797  55.7161072  70.9177925  32.6806874  56.3298596
  69.4333805  32.8443999  56.0816764  67.0671428  34.8706226  41.6479427
  67.3624870  33.9616904  41.5946480  66.1659464  34.8493965  41.3260429
  78.9757507  46.5913490  48.4529835  78.8508647  45.7903230  47.9440781
  79.6336598  47.0859683  47.9643805  70.5965675  32.9462223  47.6306975
  69.8752261  33.5598190  47.4914449  71.3858931  33.4819987  47.5523621
  81.0392416  44.3922510  50.0809385  80.0922751  44.2727861  50.0087712
  81.3875189  43.5045008  50.1635647  73.3991989  30.2816649  53.9047627
  73.9226391  30.5278946  54.6673936  73.1804322  31.1136684  53.4850764
  68.7959270  32.5520324  41.7718752  68.4671976  31.6717703  41.5893858
  69.1498641  32.4967992  42.6595141  78.0438849  44.1875226  46.2813737
  77.8963811  43.2591934  46.4621308  78.8692342  44.2095317  45.7970813
  71.9101093  32.8393293  42.1394230  72.2497166  33.3679215  41.4172838
  72.3573214  33.1773700  42.9152796  81.6472971  45.0103785  47.3678610
  82.5719518  44.8046646  47.2303061  81.4788274  44.7620186  48.2767952
  74.6044534  31.2230344  51.5897298  74.2641354  30.4238157  51.9917978
  73.8983540  31.5232055  51.0174131  75.2561006  28.3079657  50.0424621
  76.0787075  27.8340135  49.9203511  75.4999069  29.0870140  50.5423307
  73.8969240  31.3367915  40.3387522  74.6177603  31.7149168  39.8351239
  73.2734544  32.0556792  40.4422500  78.0400363  32.0413064  41.2745855
  78.2563978  32.9237702  40.9734683  77.5594430  31.6499277  40.5451497
  72.7799585  34.9998777  47.8516599  72.6344165  35.3139080  48.7440881
  72.3024788  35.6183678  47.2987498  74.6395968  31.9901325  47.8997489
  74.6257536  31.0942419  47.5629787  75.3568396  31.9971989  48.5335775
  76.4922098  32.4238665  49.9450616  76.2339876  33.3455736  49.9434947
  75.9607139  32.0269100  50.6351080  81.4368287  45.5289453  42.7240702
  81.6105165  44.9635875  41.9714554  81.9297178  46.3290347  42.5420192
  67.2545247  37.5404122  50.7904260  66.7098715  38.3163930  50.9224535
  68.1324597  37.8874926  50.6323382  74.0432863  30.8715706  43.1685059
  74.1648775  29.9432352  43.3675947  73.7534906  30.8854391  42.2563374
  76.9124054  28.5570616  46.3051779  76.9345751  28.6209949  45.3503758
  77.3292113  27.7175125  46.4992285  87.2907678  38.2925876  44.3431001
  87.7338824  37.5433201  43.9450125  86.4134188  38.2836012  43.9604733
  82.4243459  44.8456217  39.8237600  83.1194364  45.4662910  40.0424915
  82.7666610  43.9951568  40.0989978  84.3234883  42.2955923  41.3524931
  84.8486207  42.6343195  40.6274251  84.2357235  41.3602938  41.1688065
  76.0075543  48.3627906  45.7120184  75.5680534  47.8704284  46.4053041
  76.7583660  47.8200873  45.4712259  68.4867882  44.5539447  45.7144812
  69.3125902  44.2543219  45.3343456  68.1361934  43.7847069  46.1634601
  73.4549415  43.9065915  47.7842486  72.8329425  43.2436620  47.4844713
  74.1254282  43.9327047  47.1016133  66.6876487  42.4725773  46.6733746
  65.8508396  42.0447947  46.4917747  66.6600133  42.6658216  47.6104537
  73.5273943  32.3847703  57.3774992  73.5762098  33.2609826  56.9952761
  74.0696457  31.8425096  56.8046635  84.1326664  39.7781293  53.9708857
  84.1824669  39.6131300  54.9124380  84.0240587  38.9108552  53.5806738
  73.0162922  42.4569838  41.2600946  73.1651043  43.1405303  40.6067619
  73.8229366  42.4374928  41.7750402  81.4230426  35.7612221  55.2868164
  82.3240289  35.6218685  54.9952162  81.4978401  35.9266675  56.2266341
  75.7573231  33.1379075  54.1321350  74.8876541  33.4312641  53.8603939
  75.9932712  33.7219520  54.8528614  85.6344861  42.1978234  54.2150879
  85.3429669  42.5608215  55.0514340  85.0216992  41.4845242  54.0364211
  86.8340543  39.7631114  46.7353449  87.6687434  40.2020918  46.8991009
  86.9699672  39.2869767  45.9161695  83.8832049  37.3210849  52.6830937
  84.3586170  37.5138495  51.8749788  82.9597614  37.3770034  52.4374320
  70.7715555  38.4835016  42.2662015  70.5261597  37.5797346  42.4642225
  70.9411470  38.4852166  41.3241493  78.4612265  29.3558692  51.6486771
  78.9794209  30.0919719  51.3233259  78.1067398  29.6622686  52.4833530
  70.0411203  34.2163373  39.7648177  69.3480448  34.2907728  39.1088212
  69.7962955  33.4523717  40.2869693  78.7124859  25.7758975  47.1687667
  78.9926613  25.1082164  47.7948094  79.4975466  25.9688070  46.6562331
  76.5158328  44.9517969  38.7312694  75.9432295  45.5708156  38.2783165
  77.0891122  45.5017330  39.2652616  82.5833718  34.1976609  50.9159242
  83.5351141  34.2974706  50.9371466  82.4137168  33.4054877  51.4257327
  80.6048097  31.2832192  51.1018643  80.0098029  31.5637205  50.4065132
  80.3197794  31.7726093  51.8735384  79.7355588  45.2355119  39.8621276
  80.6686261  45.1700680  40.0654151  79.6478801  46.0711386  39.4035808
  82.3643604  44.5520989  36.8225223  82.2857236  44.2180853  37.7160981
  83.1853271  45.0442757  36.8216696  85.0621796  37.4182728  50.0301542
  85.0298116  36.4798729  50.2161226  85.6722419  37.4966765  49.2967367
  76.9005126  36.2878781  36.0728746  77.8464231  36.1584990  36.1417164
  76.5219371  35.5493443  36.5498174  85.2116284  34.2093772  50.0759825
  84.6955333  33.4252229  49.8889754  86.0956233  33.8812488  50.2406345
  82.8727011  27.9534787  46.0355638  82.6751832  27.6449876  46.9198970
  83.4826717  28.6796426  46.1653568  90.8798345  38.4798735  49.1707579
  91.6101734  38.2184023  49.7315282  90.2705291  37.7427457  49.2109647
  88.9613643  36.6206598  49.7682030  88.2346806  36.4862563  49.1598522
  88.5460929  36.9283426  50.5738748  75.0848044  34.2128758  36.0083631
  74.1779499  33.9161871  36.0846345  75.3624025  33.9158576  35.1417918
  66.0025984  35.5335121  46.4582678  65.6828768  34.6800429  46.1657052
  65.4559412  35.7483699  47.2140645  69.7805892  38.2497562  50.1752184
  69.9991901  39.1814670  50.1940218  70.1931665  37.8905537  50.9606988
  76.7010109  28.7565648  42.1627873  75.8910838  28.4112732  42.5383119
  77.3894526  28.4473191  42.7515484  78.6300658  27.8343694  43.7852169
  79.1831696  28.2539148  44.4442192  78.8670744  26.9079442  43.8275125
  73.8546828  31.0715693  36.1495610  74.7165992  31.3970591  36.4091428
  74.0397172  30.2847189  35.6368676  65.8714244  39.1538033  48.4275799
  65.1777715  38.7391986  47.9145754  66.6187235  39.1958569  47.8309218
  82.0079465  29.9444219  43.2930833  81.4278134  30.6029024  42.9108886
  81.7415397  29.1221564  42.8818251  80.4583031  29.3449277  45.4952154
  80.9582809  29.4565812  44.6866473  81.1018639  29.0410330  46.1352962
  67.7850986  39.0856286  46.3041814  67.7621675  39.1843974  45.3523697
  68.0951623  39.9321437  46.6258980  70.4438364  41.1432442  50.4188429
  71.3981618  41.1116384  50.3518360  70.2450888  40.6823065  51.2338654
  71.0337746  39.7133558  52.9859226  71.8530635  40.2077636  53.0094064
  71.3074554  38.7965526  52.9576794  80.7904343  32.1044310  42.3487182
  79.9030198  32.3893960  42.1307376  81.2058332  31.9438073  41.5014459
  84.1418879  32.1290831  46.0641521  84.9179269  32.6187283  46.3366138
  83.4167013  32.5548885  46.5213390  86.5791437  32.8418450  47.1215462
  87.1735928  32.6014186  46.4108770  86.6518021  32.1225581  47.7488998
  79.9347556  41.8688985  36.4435202  80.6383406  42.0738987  37.0592857
  79.2110205  42.4365746  36.7084285  80.7645366  37.6198846  42.5637472
  80.7080568  38.0767397  41.7245104  81.3173709  36.8589530  42.3860315
  84.5750172  33.4088578  43.3887591  84.3187107  33.0085213  44.2195799
  83.9503040  34.1232372  43.2637731  88.8862510  36.1484651  45.8958883
  88.3262068  36.2177840  46.6690445  88.2806014  35.9725636  45.1758379
  81.8434254  42.3071514  38.4933662  82.6779857  41.8752712  38.3111137
  81.6818596  42.1353527  39.4210556  81.4980146  38.8103627  39.8590001
  81.4428950  38.6447898  38.9178445  80.8726201  39.5179660  40.0152191
  66.2872661  34.0471691  53.6851423  66.9331524  33.5370645  54.1738648
  66.0789812  34.7840373  54.2594849  74.8076271  28.3111736  39.4375319
  74.7954941  29.2553576  39.5943590  75.6999693  28.1281881  39.1434781
  74.7365835  46.9880626  47.5243076  73.7861466  46.9882488  47.4107448
  75.0398321  46.2413361  47.0079111  78.6228391  24.9054513  43.6921256
  77.8560786  24.3512999  43.8377939  79.0339096  24.9776381  44.5535408
  90.4718529  52.8241165  48.5888839  91.1096939  52.7047912  47.8852179
  90.3539372  53.7722009  48.6476791  87.2808235  52.7768593  48.5250363
  86.9426746  52.6609658  47.6370898  88.1498003  52.3759758  48.5051369
  83.1395051  54.6304069  44.5147254  82.5759916  54.5394006  43.7463542
  83.0247446  53.8103974  44.9949747  80.6859483  56.1255261  47.3531475
  81.4780774  55.7846086  46.9377774  80.9256133  56.2350236  48.2733628
  88.7194609  58.2975037  39.8261719  88.0682589  58.8829117  39.4395733
  89.5138972  58.8281232  39.8856757  82.6450237  55.3864174  40.2248853
  83.4181113  54.8393161  40.0861729  82.9975635  56.2508424  40.4363315
  84.9816514  51.5456840  37.8567303  85.2342035  51.0238362  37.0950766
  84.0441073  51.3822986  37.9593987  90.0259797  50.5492619  45.6642047
  90.8122886  50.1312042  45.3132464  90.2898501  51.4538711  45.8323695
  90.1969874  55.9865469  40.3630703  89.5615707  56.0600096  41.0751608
  89.8667281  56.5759068  39.6849783  95.4268224  50.4867852  46.5675025
  96.1593396  49.9167069  46.8012855  94.6707580  50.0989452  47.0081531
  84.7012803  53.4484946  40.0591678  84.5849061  52.7729850  40.7272763
  84.8115063  52.9617320  39.2423831  87.0444344  52.9095093  43.7638368
  86.6802551  52.3825714  44.4751289  87.9011460  52.5193562  43.5904853
  92.9493645  44.1989426  51.0269634  92.6176969  45.0684837  50.8030849
  92.3539258  43.8825710  51.7063664  86.6849831  47.9384993  38.7599716
  86.8524233  48.8065230  39.1270187  86.4947000  48.1012275  37.8361005
  89.4425164  56.4001972  50.4265546  89.1425887  57.3027011  50.3181354
  89.0976224  56.1334155  51.2786699  82.8937646  52.8515769  46.4602251
  81.9688142  52.7191983  46.6679943  83.1422059  53.6309988  46.9572193
  92.8422308  48.9184512  48.1062984  91.9339185  48.8499921  47.8121745
  92.7909904  49.3956457  48.9344809  86.6639052  50.3942651  39.7446383
  86.5438677  50.8399701  40.5831863  85.9691640  50.7427968  39.1859921
  80.2546457  52.4949042  47.2946040  80.3838838  52.7483521  48.2085452
  79.5743908  53.0876750  46.9750695  84.4245944  63.1646292  43.3936514
  84.3469974  64.1154117  43.4724995  83.8207588  62.8192165  44.0511440
  94.7083954  47.1200951  49.8840858  94.0658335  47.4133484  49.2380652
  94.2038883  47.0053871  50.6894054  92.3624118  50.8664124  40.5726717
  93.2741974  51.0991511  40.3974414  91.8533765  51.4501168  40.0101796
  90.6464886  55.2888752  54.2088010  91.0548242  54.8471162  53.4642642
  89.9242147  54.7141379  54.4622202  86.9995956  50.2261358  51.5821566
  87.8457151  50.6500772  51.7256215  86.9394593  49.5694983  52.2760130
  90.9693700  55.8489942  47.9640298  90.3402563  56.0135656  47.2616366
  90.5819362  56.2631552  48.7351262  94.8482932  56.7844380  45.3184662
  94.1633970  57.1643281  44.7681695  94.9326782  57.3939707  46.0516610
  90.1495401  47.8865727  53.2402740  89.9056333  48.6407787  52.7037016
  90.4255332  48.2651074  54.0749987  92.1033864  54.4304339  51.9180006
  92.3150759  55.0736099  51.2414387  92.0563612  53.5966656  51.4501936
  89.7060093  47.0422160  48.8216578  88.8444572  47.3403413  49.1133315
  89.7322527  47.2592559  47.8897610  86.5221662  55.5864350  45.2290383
  86.9860008  55.8652053  44.4395006  86.2578460  54.6847795  45.0463474
  85.4590548  51.7087503  42.0379949  86.1614592  52.1608546  42.5053875
  85.1271177  51.0671322  42.6659842  79.2015882  49.9671055  47.3397082
  78.4114936  50.2228584  46.8637193  79.6927130  50.7819393  47.4449123
  93.2179692  57.3076295  50.0902363  94.0397135  56.9056482  49.8085045
  93.2142095  57.2044529  51.0418479  81.1530628  50.3315635  44.2980559
  80.3561791  50.4434329  44.8164055  80.9256220  50.6702287  43.4321449
  86.9836295  56.8560338  52.2463074  87.0480728  57.3180745  53.0821245
  86.2747219  56.2257703  52.3745383  77.4853585  50.2201546  49.7712073
  77.7361624  51.1048556  50.0369649  78.0213134  50.0406147  48.9987165
 101.3085685  53.6515043  46.4387334 100.5549393  53.0822441  46.2831339
 101.4433226  53.6177708  47.3857969  86.6984313  58.5228445  42.1142054
  86.5629988  59.3679981  42.5426902  87.2394125  58.7247723  41.3507988
  80.1513710  56.0403883  42.6869979  80.6638231  56.8347134  42.8375544
  80.8036423  55.3430174  42.6203580  81.9608595  59.1569640  44.7692732
  82.1375223  60.0787604  44.5813716  82.7565428  58.8428059  45.1987112
  88.3252789  59.1452012  56.2442396  87.8816643  58.3588390  55.9263300
  88.9870003  59.3331162  55.5786287  83.0839910  60.6747813  50.7703074
  83.6347336  60.5464877  49.9980068  82.2451386  60.9742702  50.4197967
  90.4234027  59.4254812  54.2723797  90.4052503  60.2463693  53.7804066
  91.3453947  59.3008887  54.4973938  86.8807081  56.9398941  55.1147306
  87.4135418  56.1787229  54.8846614  86.3521163  56.6472593  55.8571460
  90.0476776  42.0459007  50.6440947  89.7041046  42.9360649  50.5680058
  90.4155739  41.8560665  49.7810532  78.1162627  54.3692538  43.4629549
  78.9537849  54.7789546  43.2463257  78.2940895  53.4291980  43.4329743
  90.0127059  52.0367618  39.1513382  89.4973683  52.8072223  39.3901770
  89.7404368  51.3632754  39.7746444  87.5974170  46.8817319  44.2098621
  86.7415767  46.4924169  44.0304259  88.0101122  46.9609280  43.3498406
  89.1273317  44.4163662  48.6090181  88.6238112  44.3793798  47.7957986
  89.4203924  45.3256405  48.6686837  85.3716203  44.5002392  47.6156362
  86.2369199  44.3045201  47.2562252  85.4393712  44.2712744  48.5425719
  94.9861333  54.7899973  41.0866556  94.2090776  54.4511132  40.6421718
  95.6652814  54.7952596  40.4121521  89.8013362  49.9094710  40.9773164
  89.4963498  50.2240860  41.8283307  90.7543804  49.9876130  41.0200497
  88.2459794  56.0684934  42.6266118  87.7181156  55.3337693  42.3139355
  87.7447297  56.8459610  42.3806086  93.2252640  54.2633954  47.7433164
  92.5676315  54.9533216  47.8313293  94.0293039  54.6530386  48.0867150
  82.9778522  46.7304600  44.9872729  83.5522274  46.5079781  44.2545922
  83.5649504  46.7993294  45.7401330  92.0358099  52.6178327  45.7937106
  92.5489981  53.2508319  46.2958815  92.6859323  52.0179522  45.4280466
  83.3048109  48.7609061  39.0068614  82.4685421  49.0983748  39.3277889
  83.1652879  48.6258041  38.0695751  85.2801190  43.6045849  43.7147799
  84.6265602  43.2894866  43.0904413  85.2381664  42.9821589  44.4407621
  86.3912394  53.8865144  35.6301091  85.4839456  53.6554397  35.8292240
  86.8883426  53.0902763  35.8175072  89.2980473  62.5962651  38.5497777
  88.6242172  62.8994348  39.1582735  89.6846295  63.3991732  38.2003234
  88.5138930  50.0927782  48.0395446  87.5961491  50.3142729  47.8817134
  88.9299073  50.1674093  47.1807153  89.2973978  51.4919198  43.1698126
  90.0445797  52.0040595  42.8605248  89.5665567  51.1703251  44.0302520
  87.5700628  53.9877739  40.1525081  86.6611847  53.7036772  40.2497550
  87.5995712  54.4076817  39.2928388  92.8019895  57.5984328  43.9216248
  92.3482222  56.7575238  43.9781439  92.1713862  58.2345727  44.2591028
  91.7452815  48.5276314  45.1516916  91.0075572  48.0153701  45.4827158
  91.9979588  48.0876696  44.3400193  91.2452834  59.4360825  44.8566066
  91.5375809  59.9965882  44.1378432  91.7551455  59.7289386  45.6119226
  91.8464442  41.3052566  45.7458685  92.1523319  40.4449930  45.4584600
  92.5717047  41.8970187  45.5457679  78.1388798  51.7083253  44.1340283
  77.9413198  51.1152614  43.4091349  77.5835462  51.4035463  44.8516222
  86.1185522  51.6006359  46.2534876  86.1734132  50.6480196  46.1777353
  85.3076724  51.7565799  46.7376174  87.2676716  55.5286483  37.4913159
  86.8296146  54.8122341  37.0318797  88.0087156  55.7562597  36.9298251
  84.0577882  50.2183419  44.0125255  83.2445747  50.5177590  44.4190447
  84.5536876  49.8239108  44.7299737  86.2086460  60.2141176  45.9459520
  86.1662638  60.4402022  45.0168052  87.1249159  59.9804551  46.0945321
  89.6552093  50.6825244  52.8440149  90.0101481  50.9096717  53.7034615
  90.3024225  51.0143620  52.2217404  95.3849830  53.8043680  43.5489478
  95.2467729  53.9945276  42.6210667  95.0286049  54.5663062  44.0057529
  83.5491957  47.7901775  49.6286490  84.1891336  47.6490534  48.9309453
  82.7169487  47.5036288  49.2525092  95.4119210  55.8720207  48.5600749
  95.8455717  55.7795496  49.4083803  96.1250791  55.8477707  47.9220765
  84.3252260  57.0904205  45.7421482  85.1192859  56.5954525  45.5404057
  83.6143953  56.5622068  45.3789188  89.1447105  59.4722301  50.0933850
  89.1984127  60.0413237  50.8611566  88.2761886  59.6424186  49.7287887
  80.6335024  51.2347287  41.8181235  79.7032612  51.1731742  42.0351197
  80.7292496  50.7123240  41.0217876  80.5520573  47.7602100  44.4059477
  80.8127390  48.6747433  44.2968637  81.3737745  47.2926542  44.5556089
  96.2734760  55.9143907  51.0933635  96.4670650  56.8189718  51.3392910
  96.1735378  55.4551326  51.9272220  87.9271070  45.8001798  53.5923962
  87.2798985  46.4991747  53.4988438  88.6972086  46.2337942  53.9600210
  91.3349868  56.0650650  56.6674515  91.1835375  55.8361202  55.7504599
  91.3254548  57.0221251  56.6805860  88.1035205  53.6382563  51.6520782
  89.0327265  53.7893722  51.4789749  87.6826235  53.7266583  50.7969428
  86.9023536  57.6633227  49.4219319  86.7634622  57.2952012  50.2945258
  86.1138133  58.1780867  49.2503277  87.4971688  62.7642324  40.7644856
  87.6723444  62.2930367  41.5790479  86.8104476  63.3908090  40.9926117
  88.4528752  57.0414830  46.8108157  88.1178584  57.0015600  47.7065807
  87.9532697  56.3759546  46.3378567  91.3887943  54.3870864  37.0845217
  90.7717114  53.6617692  36.9878270  90.9204432  55.1480224  36.7412291
  93.0442075  59.0969773  54.7450997  92.9854621  58.4128993  54.0781580
  93.4461593  59.8388763  54.2931623  82.0632774  65.9131686  47.5384716
  82.3029372  66.5450211  48.2163735  81.2201970  65.5619726  47.8250075
  83.1786489  48.6056288  36.2066521  82.3015955  48.4845089  35.8428768
  83.6544242  47.8142367  35.9545410  93.0459482  57.0609356  52.9764977
  92.1586261  56.7235278  53.0991376  93.6158033  56.3292388  53.2133742
  74.6988629  53.3933448  46.3008028  75.3859669  53.0795178  45.7129044
  74.5436758  54.2974813  46.0275280  79.5023351  48.2823645  50.7293052
  79.4181540  47.6749314  49.9943462  78.6806058  48.7732663  50.7302548
  86.5760636  61.7210809  49.9426220  86.5030807  62.5265780  50.4545525
  86.1338029  61.9202775  49.1174241  86.3650415  60.9582579  43.4529042
  85.5817937  61.5004259  43.5467266  87.0643160  61.4756558  43.8523283
  89.6747065  46.7677208  46.0963247  90.1715765  46.0147171  45.7764317
  88.9034047  46.8041525  45.5306456  97.5276823  52.4717574  47.7381539
  97.5166699  53.3542289  47.3675472  96.6594202  52.1189125  47.5436076
  89.0359319  61.6197643  52.0984379  89.7487291  62.2545108  52.0260280
  88.5449348  61.7161509  51.2824381  90.7576846  55.5248896  43.6701670
  89.8233125  55.6450358  43.5006375  90.9353514  54.6221362  43.4061680
  86.2582034  48.9094591  45.8234932  85.8879822  48.3565632  46.5115837
  86.7541126  48.3052725  45.2709932  94.1449397  51.3666215  44.2051705
  94.6109850  52.1994206  44.1312007  94.5956898  50.9011196  44.9096963
  84.0871233  59.3692086  52.9189950  84.7880692  60.0028569  53.0719344
  83.6166348  59.7106818  52.1585589  92.2125628  57.7110036  41.2037857
  92.4885472  57.5966631  42.1131731  91.3430127  57.3127521  41.1650030
  92.1166060  43.7346802  48.2442606  91.2029140  43.9651029  48.4124813
  92.5459162  43.8185246  49.0956638  91.8872519  51.9236694  50.7442500
  91.2343969  52.1712601  50.0894953  92.2652898  51.1100832  50.4104977
  88.8479692  61.9596387  44.8470670  89.0302087  61.1418043  45.3098423
  89.6712678  62.1764079  44.4095560  89.1821858  60.8864572  42.1085719
  89.7109624  60.3757027  41.4955881  89.4450078  60.5707102  42.9731252
  79.6838951  58.9028441  49.8521052  80.2692387  58.1572129  49.9848956
  79.4863789  59.2132398  50.7357716  82.5377606  61.9379689  44.8683495
  81.8687981  62.4225816  44.3847535  82.3990476  62.1848909  45.7826873
  74.2756605  51.4734042  48.5725495  74.3140705  50.9397632  49.3662614
  73.7696898  50.9469247  47.9536473  86.6782874  63.9723432  51.4666153
  87.2301182  64.1355054  52.2315238  87.0189068  64.5627870  50.7946178
  91.5293749  58.7984690  57.3214807  92.0733653  59.4114648  56.8269762
  90.9480594  59.3564268  57.8381820  77.9065183  50.1998144  41.6479427
  78.2018624  49.2908822  41.5946480  77.0053219  50.1785883  41.3260429
  89.8151262  61.9205408  48.4529835  89.6902401  61.1195148  47.9440781
  90.4730353  62.4151601  47.9643805  81.4359430  48.2754140  47.6306975
  80.7146016  48.8890108  47.4914449  82.2252686  48.8111905  47.5523621
  91.8786170  59.7214428  50.0809385  90.9316506  59.6019779  50.0087712
  92.2268943  58.8336926  50.1635647  79.6353025  47.8812241  41.7718752
  79.3065731  47.0009620  41.5893858  79.9892395  47.8259910  42.6595141
  88.8832603  59.5167144  46.2813737  88.7357566  58.5883851  46.4621308
  89.7086097  59.5387235  45.7970813  82.7494848  48.1685211  42.1394230
  83.0890920  48.6971132  41.4172838  83.1966968  48.5065617  42.9152796
  92.4866725  60.3395703  47.3678610  93.4113273  60.1338564  47.2303061
  92.3182029  60.0912104  48.2767952  85.4438289  46.5522262  51.5897298
  85.1035109  45.7530075  51.9917978  84.7377295  46.8523973  51.0174131
  86.0954760  43.6371574  50.0424621  86.9180830  43.1632052  49.9203511
  86.3392824  44.4162058  50.5423307  84.7362995  46.6659833  40.3387522
  85.4571357  47.0441086  39.8351239  84.1128299  47.3848710  40.4422500
  88.8794118  47.3704982  41.2745855  89.0957732  48.2529620  40.9734683
  88.3988185  46.9791195  40.5451497  83.6193339  50.3290695  47.8516599
  83.4737920  50.6430998  48.7440881  83.1418543  50.9475595  47.2987498
  85.4789722  47.3193243  47.8997489  85.4651291  46.4234336  47.5629787
  86.1962150  47.3263907  48.5335775  87.3315853  47.7530583  49.9450616
  87.0733631  48.6747654  49.9434947  86.8000893  47.3561018  50.6351080
  92.2762041  60.8581370  42.7240702  92.4498919  60.2927793  41.9714554
  92.7690933  61.6582265  42.5420192  84.8826618  46.2007623  43.1685059
  85.0042529  45.2724269  43.3675947  84.5928660  46.2146309  42.2563374
  87.7517808  43.8862534  46.3051779  87.7739505  43.9501867  45.3503758
  88.1685867  43.0467042  46.4992285  98.1301433  53.6217793  44.3431001
  98.5732579  52.8725118  43.9450125  97.2527943  53.6127930  43.9604733
  93.2637214  60.1748135  39.8237600  93.9588119  60.7954827  40.0424915
  93.6060364  59.3243486  40.0989978  95.1628637  57.6247840  41.3524931
  95.6879961  57.9635113  40.6274251  95.0750990  56.6894856  41.1688065
  86.8248686  61.5381914  53.4814807  87.1335812  61.2931061  54.3537507
  87.6224168  61.7428552  52.9933678  86.8469298  63.6919823  45.7120184
  86.4074288  63.1996202  46.4053041  87.5977415  63.1492791  45.4712259
  79.3261637  59.8831364  45.7144812  80.1519657  59.5835136  45.3343456
  78.9755689  59.1138987  46.1634601  84.2943170  59.2357833  47.7842486
  83.6723179  58.5728538  47.4844713  84.9648037  59.2618964  47.1016133
  77.5270242  57.8017691  46.6733746  76.6902150  57.3739865  46.4917747
  77.4993887  57.9950134  47.6104537  94.8522543  58.2580744  56.6576129
  94.0618087  58.2404883  56.1180628  94.6155898  58.7969038  57.4125165
  94.9720418  55.1073210  53.9708857  95.0218423  54.9423218  54.9124380
  94.8634342  54.2400469  53.5806738  83.8556677  57.7861756  41.2600946
  84.0044797  58.4697220  40.6067619  84.6623120  57.7666846  41.7750402
  92.2624181  51.0904138  55.2868164  93.1634043  50.9510603  54.9952162
  92.3372155  51.2558593  56.2266341  96.4738615  57.5270152  54.2150879
  96.1823423  57.8900132  55.0514340  95.8610746  56.8137160  54.0364211
  97.6734297  55.0923032  46.7353449  98.5081189  55.5312836  46.8991009
  97.8093426  54.6161685  45.9161695  94.7225803  52.6502766  52.6830937
  95.1979925  52.8430413  51.8749788  93.7991369  52.7061952  52.4374320
  81.6109310  53.8126934  42.2662015  81.3655352  52.9089264  42.4642225
  81.7805224  53.8144084  41.3241493  89.3006020  44.6850610  51.6486771
  89.8187964  45.4211637  51.3233259  88.9461153  44.9914603  52.4833530
  80.8804957  49.5455291  39.7648177  80.1874202  49.6199646  39.1088212
  80.6356709  48.7815635  40.2869693  89.5518614  41.1050892  47.1687667
  89.8320368  40.4374082  47.7948094  90.3369221  41.2979988  46.6562331
  87.3552082  60.2809886  38.7312694  86.7826050  60.9000073  38.2783165
  87.9284876  60.8309248  39.2652616  93.4227472  49.5268526  50.9159242
  94.3744895  49.6266624  50.9371466  93.2530923  48.7346795  51.4257327
  91.4441852  46.6124110  51.1018643  90.8491784  46.8929122  50.4065132
  91.1591548  47.1018011  51.8735384  90.5749342  60.5647036  39.8621276
  91.5080015  60.4992598  40.0654151  90.4872555  61.4003303  39.4035808
  93.2037359  59.8812907  36.8225223  93.1250990  59.5472770  37.7160981
  94.0247026  60.3734675  36.8216696  95.9015550  52.7474646  50.0301542
  95.8691870  51.8090647  50.2161226  96.5116174  52.8258683  49.2967367
  87.7398881  51.6170699  36.0728746  88.6857986  51.4876907  36.1417164
  87.3613126  50.8785361  36.5498174  96.0510039  49.5385690  50.0759825
  95.5349087  48.7544146  49.8889754  96.9349987  49.2104406  50.2406345
  93.7120765  43.2826705  46.0355638  93.5145587  42.9741793  46.9198970
  94.3220471  44.0088344  46.1653568 101.7192100  53.8090653  49.1707579
 102.4495488  53.5475941  49.7315282 101.1099045  53.0719375  49.2109647
  99.8007397  51.9498516  49.7682030  99.0740561  51.8154480  49.1598522
  99.3854684  52.2575344  50.5738748  85.9241798  49.5420675  36.0083631
  85.0173253  49.2453788  36.0846345  86.2017779  49.2450494  35.1417918
  76.8419738  50.8627039  46.4582678  76.5222523  50.0092347  46.1657052
  76.2953167  51.0775617  47.2140645  87.5403864  44.0857565  42.1627873
  86.7304592  43.7404650  42.5383119  88.2288281  43.7765109  42.7515484
  89.4694412  43.1635612  43.7852169  90.0225451  43.5831065  44.4442192
  89.7064498  42.2371360  43.8275125  84.6940583  46.4007611  36.1495610
  85.5559747  46.7262509  36.4091428  84.8790927  45.6139107  35.6368676
  76.7107998  54.4829950  48.4275799  76.0171470  54.0683903  47.9145754
  77.4580989  54.5250487  47.8309218  92.8473219  45.2736137  43.2930833
  92.2671888  45.9320941  42.9108886  92.5809152  44.4513482  42.8818251
  91.2976786  44.6741195  45.4952154  91.7976564  44.7857729  44.6866473
  91.9412393  44.3702248  46.1352962  78.6244741  54.4148204  46.3041814
  78.6015429  54.5135891  45.3523697  78.9345377  55.2613355  46.6258980
  91.6298097  47.4336228  42.3487182  90.7423952  47.7185878  42.1307376
  92.0452086  47.2729991  41.5014459  94.9812633  47.4582749  46.0641521
  95.7573023  47.9479201  46.3366138  94.2560767  47.8840803  46.5213390
  97.4185192  48.1710368  47.1215462  98.0129683  47.9306104  46.4108770
  97.4911776  47.4517498  47.7488998  79.6382348  62.0143979  47.4358626
  79.5036816  61.2544380  46.8696624  79.2214410  62.7384879  46.9687415
  90.7741311  57.1980902  36.4435202  91.4777161  57.4030905  37.0592857
  90.0503959  57.7657664  36.7084285  91.6039121  52.9490763  42.5637472
  91.5474322  53.4059315  41.7245104  92.1567463  52.1881448  42.3860315
  95.4143927  48.7380495  43.3887591  95.1580861  48.3377131  44.2195799
  94.7896795  49.4524289  43.2637731  99.7256265  51.4776569  45.8958883
  99.1655823  51.5469758  46.6690445  99.1199768  51.3017553  45.1758379
  82.7951474  62.9113296  47.6477069  82.6783858  63.8558728  47.5455759
  81.9743920  62.6086857  48.0362868  92.6828008  57.6363431  38.4933662
  93.5173612  57.2044630  38.3111137  92.5212351  57.4645445  39.4210556
  92.3373900  54.1395545  39.8590001  92.2822704  53.9739816  38.9178445
  91.7119956  54.8471578  40.0152191  89.6519807  56.4444457  59.1843564
  90.5210967  56.6185109  58.8230199  89.1726559  57.2638873  59.0619293
  85.6470026  43.6403654  39.4375319  85.6348696  44.5845494  39.5943590
  86.5393448  43.4573799  39.1434781  83.8205988  63.5641558  50.8632998
  84.7233234  63.5965168  51.1799492  83.5943358  62.6342009  50.8779333
  85.5759590  62.3172544  47.5243076  84.6255221  62.3174406  47.4107448
  85.8792076  61.5705279  47.0079111  89.4622145  40.2346430  43.6921256
  88.6954541  39.6804917  43.8377939  89.8732850  40.3068299  44.5535408
 101.3112283  68.1533083  48.5888839 101.9490693  68.0339830  47.8852179
 101.1933126  69.1013926  48.6476791  98.1201989  68.1060511  48.5250363
  97.7820501  67.9901575  47.6370898  98.9891758  67.7051676  48.5051369
  93.9788805  69.9595987  44.5147254  93.4153670  69.8685924  43.7463542
  93.8641200  69.1395892  44.9949747  98.6021772  69.2595362  54.4836569
  98.5910413  68.8648161  53.6117072  98.7642412  68.5261435  55.0770340
  91.5253237  71.4547179  47.3531475  92.3174529  71.1138003  46.9377774
  91.7649887  71.5642154  48.2733628  99.5588364  73.6266955  39.8261719
  98.9076344  74.2121035  39.4395733 100.3532727  74.1573150  39.8856757
  93.4843991  70.7156092  40.2248853  94.2574867  70.1685079  40.0861729
  93.8369390  71.5800341  40.4363315  96.2485240  69.4209323  50.0217112
  96.8448813  69.1965345  49.3074075  96.3060212  68.6794068  50.6242560
  95.8210269  66.8748758  37.8567303  96.0735789  66.3530279  37.0950766
  94.8834828  66.7114903  37.9593987 100.8653552  65.8784536  45.6642047
 101.6516641  65.4603960  45.3132464 101.1292256  66.7830629  45.8323695
 101.0363629  71.3157387  40.3630703 100.4009462  71.3892013  41.0751608
 100.7061035  71.9050986  39.6849783 106.2661979  65.8159770  46.5675025
 106.9987151  65.2458986  46.8012855 105.5101334  65.4281370  47.0081531
  95.5406558  68.7776864  40.0591678  95.4242816  68.1021767  40.7272763
  95.6508817  68.2909238  39.2423831  97.8838098  68.2387011  43.7638368
  97.5196306  67.7117632  44.4751289  98.7405214  67.8485480  43.5904853
 103.7887399  59.5281344  51.0269634 103.4570724  60.3976755  50.8030849
 103.1933013  59.2117628  51.7063664  97.5243585  63.2676911  38.7599716
  97.6917988  64.1357147  39.1270187  97.3340755  63.4304192  37.8361005
 100.2818919  71.7293890  50.4265546  99.9819642  72.6318928  50.3181354
  99.9369978  71.4626073  51.2786699  93.7331400  68.1807687  46.4602251
  92.8081897  68.0483901  46.6679943  93.9815813  68.9601906  46.9572193
 103.6816062  64.2476430  48.1062984 102.7732940  64.1791838  47.8121745
 103.6303658  64.7248375  48.9344809  97.5032806  65.7234568  39.7446383
  97.3832432  66.1691619  40.5831863  96.8085395  66.0719886  39.1859921
  91.0940211  67.8240960  47.2946040  91.2232592  68.0775439  48.2085452
  90.4137662  68.4168668  46.9750695  95.2639698  78.4938210  43.3936514
  95.1863728  79.4446035  43.4724995  94.6601342  78.1484083  44.0511440
  97.7556928  65.6666075  56.0497881  96.9790262  66.2259996  56.0400746
  98.3947491  66.1522858  56.5712751 105.5477709  62.4492868  49.8840858
 104.9052089  62.7425401  49.2380652 105.0432637  62.3345789  50.6894054
 103.2017873  66.1956041  40.5726717 104.1135729  66.4283428  40.3974414
 102.6927520  66.7793086  40.0101796  96.0103301  68.4751529  55.6115848
  96.7517985  69.0136573  55.3350672  95.3040286  69.1017818  55.7687400
 101.4858640  70.6180669  54.2088010 101.8941996  70.1763080  53.4642642
 100.7635902  70.0433297  54.4622202  97.8389710  65.5553276  51.5821566
  98.6850905  65.9792690  51.7256215  97.7788348  64.8986900  52.2760130
 101.8087455  71.1781860  47.9640298 101.1796317  71.3427574  47.2616366
 101.4213117  71.5923469  48.7351262 105.6876687  72.1136298  45.3184662
 105.0027725  72.4935199  44.7681695 105.7720536  72.7231624  46.0516610
 100.9889156  63.2157644  53.2402740 100.7450087  63.9699705  52.7037016
 101.2649086  63.5942992  54.0749987 102.9427618  69.7596257  51.9180006
 103.1544514  70.4028017  51.2414387 102.8957367  68.9258573  51.4501936
 100.5453847  62.3714077  48.8216578  99.6838326  62.6695331  49.1133315
 100.5716282  62.5884476  47.8897610  97.3615417  70.9156268  45.2290383
  97.8253762  71.1943971  44.4395006  97.0972215  70.0139713  45.0463474
  94.2539498  70.4627750  48.1670147  94.8240855  70.8915018  47.5287631
  94.8447610  70.1810334  48.8654332  96.2984303  67.0379420  42.0379949
  97.0008346  67.4900464  42.5053875  95.9664931  66.3963239  42.6659842
  94.7464664  65.6291177  56.4131158  94.1163325  66.3107458  56.6466555
  94.6400752  65.5174259  55.4684296  90.0409637  65.2962973  47.3397082
  89.2508691  65.5520502  46.8637193  90.5320884  66.1111311  47.4449123
 104.0573446  72.6368212  50.0902363 104.8790890  72.2348399  49.8085045
 104.0535849  72.5336446  51.0418479  91.9924382  65.6607552  44.2980559
  91.1955545  65.7726247  44.8164055  91.7649974  65.9994204  43.4321449
  97.8230050  72.1852255  52.2463074  97.8874482  72.6472663  53.0821245
  97.1140974  71.5549620  52.3745383  88.3247340  65.5493463  49.7712073
  88.5755378  66.4340473  50.0369649  88.8606888  65.3698065  48.9987165
 112.1479439  68.9806961  46.4387334 111.3943148  68.4114359  46.2831339
 112.2826981  68.9469625  47.3857969  97.5378067  73.8520363  42.1142054
  97.4023742  74.6971899  42.5426902  98.0787880  74.0539641  41.3507988
  94.0245407  59.9311943  58.7756409  93.6312353  59.3778141  59.4504053
  94.8411547  60.2422521  59.1662927  90.9907465  71.3695801  42.6869979
  91.5031985  72.1639051  42.8375544  91.6430178  70.6722091  42.6203580
  92.8002349  74.4861557  44.7692732  92.9768978  75.4079522  44.5813716
  93.5959183  74.1719977  45.1987112  96.9413368  61.3469822  56.3676666
  97.6823081  61.9476975  56.2881128  97.1731291  60.6047460  55.8094708
  92.0854706  66.5326189  54.6454895  91.9708221  65.6311446  54.9461994
  91.2299224  66.7789886  54.2939712  99.1646544  74.4743929  56.2442396
  98.7210398  73.6880308  55.9263300  99.8263757  74.6623080  55.5786287
  93.9233665  76.0039731  50.7703074  94.4741090  75.8756794  49.9980068
  93.0845141  76.3034620  50.4197967 101.2627782  74.7546729  54.2723797
 101.2446257  75.5755610  53.7804066 102.1847702  74.6300805  54.4973938
 100.8870531  57.3750925  50.6440947 100.5434800  58.2652567  50.5680058
 101.2549494  57.1852583  49.7810532  88.9556382  69.6984455  43.4629549
  89.7931604  70.1081464  43.2463257  89.1334649  68.7583897  43.4329743
 100.8520814  67.3659536  39.1513382 100.3367437  68.1364141  39.3901770
 100.5798122  66.6924672  39.7746444  98.4367925  62.2109237  44.2098621
  97.5809521  61.8216087  44.0304259  98.8494876  62.2901198  43.3498406
  99.9667071  59.7455580  48.6090181  99.4631867  59.7085715  47.7957986
 100.2597678  60.6548323  48.6686837  96.2109957  59.8294310  47.6156362
  97.0762954  59.6337118  47.2562252  96.2787466  59.6004662  48.5425719
 105.8255088  70.1191891  41.0866556 105.0484531  69.7803050  40.6421718
 106.5046569  70.1244514  40.4121521 100.6407117  65.2386628  40.9773164
 100.3357252  65.5532777  41.8283307 101.5937559  65.3168048  41.0200497
  99.0853549  71.3976851  42.6266118  98.5574910  70.6629611  42.3139355
  98.5841051  72.1751528  42.3806086 104.0646395  69.5925872  47.7433164
 103.4070069  70.2825133  47.8313293 104.8686794  69.9822304  48.0867150
  93.8172276  62.0596518  44.9872729  94.3916028  61.8371699  44.2545922
  94.4043259  62.1285212  45.7401330 102.8751853  67.9470245  45.7937106
 103.3883735  68.5800236  46.2958815 103.5253077  67.3471440  45.4280466
  94.1441863  64.0900979  39.0068614  93.3079176  64.4275665  39.3277889
  94.0046633  63.9549958  38.0695751  96.1194944  58.9337767  43.7147799
  95.4659356  58.6186784  43.0904413  96.0775418  58.3113507  44.4407621
  97.2306149  69.2157062  35.6301091  96.3233211  68.9846315  35.8292240
  97.7277181  68.4194681  35.8175072 100.1374228  77.9254569  38.5497777
  99.4635926  78.2286266  39.1582735 100.5240050  78.7283649  38.2003234
  99.3532684  65.4219700  48.0395446  98.4355246  65.6434647  47.8817134
  99.7692828  65.4966011  47.1807153 100.1367732  66.8211116  43.1698126
 100.8839551  67.3332513  42.8605248 100.4059322  66.4995169  44.0302520
  98.4094382  69.3169657  40.1525081  97.5005602  69.0328689  40.2497550
  98.4389466  69.7368735  39.2928388 103.6413650  72.9276246  43.9216248
 103.1875977  72.0867156  43.9781439 103.0107616  73.5637644  44.2591028
 102.5846569  63.8568232  45.1516916 101.8469326  63.3445618  45.4827158
 102.8373343  63.4168614  44.3400193 102.0846589  74.7652743  44.8566066
 102.3769563  75.3257800  44.1378432 102.5945210  75.0581304  45.6119226
 102.6858197  56.6344484  45.7458685 102.9917073  55.7741847  45.4584600
 103.4110801  57.2262104  45.5457679  88.9782553  67.0375171  44.1340283
  88.7806952  66.4444531  43.4091349  88.4229217  66.7327381  44.8516222
  96.9579276  66.9298277  46.2534876  97.0127886  65.9772114  46.1777353
  96.1470478  67.0857716  46.7376174  98.1070470  70.8578400  37.4913159
  97.6689900  70.1414259  37.0318797  98.8480911  71.0854515  36.9298251
  94.8971636  65.5475337  44.0125255  94.0839502  65.8469507  44.4190447
  95.3930630  65.1531026  44.7299737  97.0480214  75.5433094  45.9459520
  97.0056393  75.7693940  45.0168052  97.9642913  75.3096468  46.0945321
 100.4945848  66.0117161  52.8440149 100.8495236  66.2388634  53.7034615
 101.1417979  66.3435538  52.2217404 106.2243585  69.1335597  43.5489478
 106.0861483  69.3237193  42.6210667 105.8679804  69.8954980  44.0057529
  94.3885711  63.1193692  49.6286490  95.0285090  62.9782451  48.9309453
  93.5563242  62.8328206  49.2525092 106.2512964  71.2012124  48.5600749
 106.6849471  71.1087413  49.4083803 106.9644545  71.1769625  47.9220765
  95.1646015  72.4196123  45.7421482  95.9586613  71.9246443  45.5404057
  94.4537707  71.8913986  45.3789188  99.9840859  74.8014218  50.0933850
 100.0377882  75.3705155  50.8611566  99.1155641  74.9716103  49.7287887
  91.4728778  66.5639205  41.8181235  90.5426366  66.5023660  42.0351197
  91.5686250  66.0415157  41.0217876  91.3914327  63.0894017  44.4059477
  91.6521145  64.0039351  44.2968637  92.2131500  62.6218460  44.5556089
  92.8639253  64.5031775  51.5758301  93.5362306  64.2949137  50.9270950
  92.0369039  64.3053861  51.1363533 107.1128514  71.2435825  51.0933635
 107.3064404  72.1481635  51.3392910 107.0129132  70.7843244  51.9272220
  98.7664825  61.1293715  53.5923962  98.1192740  61.8283665  53.4988438
  99.5365840  61.5629859  53.9600210 102.1743623  71.3942568  56.6674515
 102.0229129  71.1653119  55.7504599 102.1648302  72.3513169  56.6805860
  98.9428959  68.9674480  51.6520782  99.8721019  69.1185640  51.4789749
  98.5219989  69.0558501  50.7969428  97.7417291  72.9925145  49.4219319
  97.6028377  72.6243929  50.2945258  96.9531887  73.5072784  49.2503277
  98.3365443  78.0934241  40.7644856  98.5117199  77.6222284  41.5790479
  97.6498231  78.7200007  40.9926117  99.2922506  72.3706747  46.8108157
  98.9572339  72.3307517  47.7065807  98.7926452  71.7051463  46.3378567
  93.2666750  67.7774378  52.3360738  93.1286548  67.0454616  52.9372277
  94.1771673  67.6883278  52.0544926 102.2281698  69.7162782  37.0845217
 101.6110868  68.9909610  36.9878270 101.7598186  70.4772142  36.7412291
  95.8949051  67.4894337  51.8244418  96.6048669  66.8487529  51.7831036
  95.8518359  67.7407232  52.7470599 103.8835829  74.4261690  54.7450997
 103.8248376  73.7420910  54.0781580 104.2855348  75.1680680  54.2931623
  94.6077985  64.4759555  53.6440057  94.0715342  64.0250293  54.2961654
  94.0194693  64.6105464  52.9010522  92.9026528  81.2423604  47.5384716
  93.1423126  81.8742128  48.2163735  92.0595725  80.8911644  47.8250075
  94.0180244  63.9348206  36.2066521  93.1409710  63.8137007  35.8428768
  94.4937997  63.1434284  35.9545410 103.8853237  72.3901274  52.9764977
 102.9980015  72.0527196  53.0991376 104.4551788  71.6584305  53.2133742
  85.5382384  68.7225366  46.3008028  86.2253424  68.4087096  45.7129044
  85.3830512  69.6266731  46.0275280  90.3417106  63.6115562  50.7293052
  90.2575295  63.0041232  49.9943462  89.5199812  64.1024581  50.7302548
  97.4154390  77.0502726  49.9426220  97.3424562  77.8557698  50.4545525
  96.9731783  77.2494692  49.1174241  97.2044170  76.2874496  43.4529042
  96.4211692  76.8296177  43.5467266  97.9036915  76.8048476  43.8523283
 100.5140820  62.0969126  46.0963247 101.0109519  61.3439088  45.7764317
  99.7427801  62.1333443  45.5306456 108.3670577  67.8009491  47.7381539
 108.3560453  68.6834207  47.3675472 107.4987957  67.4481042  47.5436076
  99.8753074  76.9489560  52.0984379 100.5881046  77.5837025  52.0260280
  99.3843102  77.0453426  51.2824381 101.5970600  70.8540813  43.6701670
 100.6626879  70.9742276  43.5006375 101.7747269  69.9513280  43.4061680
  97.0975789  64.2386509  45.8234932  96.7273576  63.6857549  46.5115837
  97.5934881  63.6344642  45.2709932 104.9843152  66.6958132  44.2051705
 105.4503604  67.5286124  44.1312007 105.4350652  66.2303114  44.9096963
 103.0519383  73.0401954  41.2037857 103.3279227  72.9258548  42.1131731
 102.1823882  72.6419439  41.1650030 102.9559815  59.0638719  48.2442606
 102.0422894  59.2942946  48.4124813 103.3852916  59.1477164  49.0956638
 102.7266273  67.2528611  50.7442500 102.0737723  67.5004519  50.0894953
 103.1046653  66.4392750  50.4104977  99.6873447  77.2888305  44.8470670
  99.8695841  76.4709961  45.3098423 100.5106433  77.5055997  44.4095560
 100.0215612  76.2156490  42.1085719 100.5503379  75.7048944  41.4955881
 100.2843832  75.8999020  42.9731252  98.7753846  67.9948422  57.2308537
  98.0994483  67.8942552  57.9010912  99.5981480  67.8387636  57.6944534
  93.3771360  77.2671606  44.8683495  92.7081736  77.7517734  44.3847535
  93.2384230  77.5140827  45.7826873  85.1150360  66.8025959  48.5725495
  85.1534459  66.2689550  49.3662614  84.6090653  66.2761165  47.9536473
  97.5176629  79.3015350  51.4666153  98.0694937  79.4646971  52.2315238
  97.8582822  79.8919788  50.7946178  92.4941122  61.6490500  52.0688038
  92.5582449  62.5105331  51.6565435  92.4308242  61.0364501  51.3360396
  91.9693395  63.7213632  55.7161072  92.5965434  63.3390710  56.3298596
  91.1121314  63.5027834  56.0816764 102.3687503  74.1276607  57.3214807
 102.9127407  74.7406566  56.8269762 101.7874348  74.6856186  57.8381820
  88.7458937  65.5290061  41.6479427  89.0412379  64.6200740  41.5946480
  87.8446973  65.5077801  41.3260429 100.6545016  77.2497325  48.4529835
 100.5296156  76.4487065  47.9440781 101.3124107  77.7443519  47.9643805
  92.2753184  63.6046058  47.6306975  91.5539770  64.2182026  47.4914449
  93.0646440  64.1403823  47.5523621 102.7179925  75.0506346  50.0809385
 101.7710260  74.9311697  50.0087712 103.0662698  74.1628844  50.1635647
  95.0779498  60.9400484  53.9047627  95.6013900  61.1862781  54.6673936
  94.8591831  61.7720519  53.4850764  90.4746779  63.2104159  41.7718752
  90.1459485  62.3301538  41.5893858  90.8286150  63.1551828  42.6595141
  99.7226358  74.8459062  46.2813737  99.5751320  73.9175769  46.4621308
 100.5479851  74.8679152  45.7970813  93.5888602  63.4977129  42.1394230
  93.9284675  64.0263050  41.4172838  94.0360723  63.8357535  42.9152796
 103.3260480  75.6687620  47.3678610 104.2507027  75.4630482  47.2303061
 103.1575783  75.4204022  48.2767952  96.2832043  61.8814180  51.5897298
  95.9428863  61.0821993  51.9917978  95.5771049  62.1815890  51.0174131
  96.9348515  58.9663492  50.0424621  97.7574584  58.4923970  49.9203511
  97.1786578  59.7453976  50.5423307  95.5756749  61.9951750  40.3387522
  96.2965112  62.3733003  39.8351239  94.9522053  62.7140627  40.4422500
  99.7187872  62.6996899  41.2745855  99.9351487  63.5821537  40.9734683
  99.2381939  62.3083113  40.5451497  94.4587094  65.6582613  47.8516599
  94.3131674  65.9722916  48.7440881  93.9812297  66.2767513  47.2987498
  96.3183476  62.6485161  47.8997489  96.3045045  61.7526254  47.5629787
  97.0355905  62.6555824  48.5335775  98.1709607  63.0822501  49.9450616
  97.9127385  64.0039571  49.9434947  97.6394648  62.6852935  50.6351080
 103.1155796  76.1873288  42.7240702 103.2892673  75.6219710  41.9714554
 103.6084687  76.9874183  42.5420192  88.9332756  68.1987957  50.7904260
  88.3886224  68.9747765  50.9224535  89.8112106  68.5458761  50.6323382
  95.7220372  61.5299541  43.1685059  95.8436284  60.6016187  43.3675947
  95.4322415  61.5438227  42.2563374  98.5911563  59.2154451  46.3051779
  98.6133260  59.2793784  45.3503758  99.0079622  58.3758960  46.4992285
 108.9695187  68.9509711  44.3431001 109.4126333  68.2017036  43.9450125
 108.0921697  68.9419847  43.9604733 104.1030968  75.5040052  39.8237600
 104.7981873  76.1246745  40.0424915 104.4454119  74.6535404  40.0989978
  89.7198778  67.3257853  53.6834417  88.9780514  67.4740489  54.2699048
  89.3991522  67.5866119  52.8201167 106.0022392  72.9539758  41.3524931
 106.5273716  73.2927031  40.6274251 105.9144744  72.0186773  41.1688065
  97.6863052  79.0211741  45.7120184  97.2468043  78.5288120  46.4053041
  98.4371169  78.4784709  45.4712259  90.1655391  75.2123282  45.7144812
  90.9913411  74.9127054  45.3343456  89.8149443  74.4430904  46.1634601
  95.1336924  74.5649750  47.7842486  94.5116934  73.9020455  47.4844713
  95.8041791  74.5910882  47.1016133  88.3663996  73.1309608  46.6733746
  87.5295905  72.7031783  46.4917747  88.3387642  73.3242052  47.6104537
  95.2061452  63.0431538  57.3774992  95.2549607  63.9193661  56.9952761
  95.7483966  62.5008931  56.8046635 105.6916298  73.5872662  56.6576129
 104.9011841  73.5696800  56.1180628 105.4549652  74.1260955  57.4125165
 105.8114173  70.4365128  53.9708857 105.8612178  70.2715135  54.9124380
 105.7028096  69.5692387  53.5806738  94.6950431  73.1153674  41.2600946
  94.8438552  73.7989138  40.6067619  95.5016875  73.0958764  41.7750402
 103.1017935  66.4196056  55.2868164 104.0027798  66.2802521  54.9952162
 103.1765910  66.5850511  56.2266341  97.4360740  63.7962911  54.1321350
  96.5664050  64.0896477  53.8603939  97.6720221  64.3803356  54.8528614
 107.3132370  72.8562069  54.2150879 107.0217178  73.2192050  55.0514340
 106.7004501  72.1429078  54.0364211 108.5128052  70.4214949  46.7353449
 109.3474943  70.8604753  46.8991009 108.6487181  69.9453602  45.9161695
 105.5619558  67.9794684  52.6830937 106.0373679  68.1722330  51.8749788
 104.6385123  68.0353870  52.4374320  92.4503064  69.1418851  42.2662015
  92.2049106  68.2381181  42.4642225  92.6198979  69.1436002  41.3241493
 100.1399774  60.0142528  51.6486771 100.6581718  60.7503555  51.3233259
  99.7854907  60.3206521  52.4833530  91.7198712  64.8747209  39.7648177
  91.0267957  64.9491564  39.1088212  91.4750464  64.1107552  40.2869693
 100.3912368  56.4342810  47.1687667 100.6714122  55.7665999  47.7948094
 101.1762975  56.6271906  46.6562331  98.1945837  75.6101804  38.7312694
  97.6219804  76.2291991  38.2783165  98.7678631  76.1601166  39.2652616
 104.2621227  64.8560444  50.9159242 105.2138650  64.9558542  50.9371466
 104.0924677  64.0638713  51.4257327 102.2835606  61.9416027  51.1018643
 101.6885538  62.2221040  50.4065132 101.9985303  62.4309928  51.8735384
 101.4143097  75.8938954  39.8621276 102.3473770  75.8284516  40.0654151
 101.3266310  76.7295221  39.4035808 104.0431113  75.2104824  36.8225223
 103.9644745  74.8764688  37.7160981 104.8640780  75.7026592  36.8216696
 106.7409305  68.0766564  50.0301542 106.7085625  67.1382565  50.2161226
 107.3509928  68.1550601  49.2967367  98.5792635  66.9462617  36.0728746
  99.5251740  66.8168825  36.1417164  98.2006880  66.2077279  36.5498174
 106.8903793  64.8677607  50.0759825 106.3742842  64.0836064  49.8889754
 107.7743742  64.5396324  50.2406345 104.5514520  58.6118623  46.0355638
 104.3539341  58.3033711  46.9198970 105.1614226  59.3380262  46.1653568
 112.5585854  69.1382571  49.1707579 113.2889243  68.8767859  49.7315282
 111.9492800  68.4011293  49.2109647 110.6401152  67.2790433  49.7682030
 109.9134315  67.1446398  49.1598522 110.2248438  67.5867262  50.5738748
  98.4631328  70.9980363  57.5329403  99.3834337  71.1758962  57.7269450
  98.4280911  70.0536408  57.3809102  96.7635553  64.8712593  36.0083631
  95.8567008  64.5745706  36.0846345  97.0411534  64.5742411  35.1417918
  87.6813493  66.1918957  46.4582678  87.3616277  65.3384265  46.1657052
  87.1346921  66.4067535  47.2140645  91.4593400  68.9081398  50.1752184
  91.6779410  69.8398505  50.1940218  91.8719174  68.5489372  50.9606988
  98.3797618  59.4149483  42.1627873  97.5698347  59.0696568  42.5383119
  99.0682035  59.1057027  42.7515484 100.3088167  58.4927530  43.7852169
 100.8619205  58.9122983  44.4442192 100.5458253  57.5663278  43.8275125
  96.3321266  64.4814603  59.5654933  96.2317993  65.4308960  59.4967024
  96.1142808  64.1532842  58.6931003  95.5334337  61.7299528  36.1495610
  96.3953501  62.0554427  36.4091428  95.7184681  60.9431024  35.6368676
  87.5501753  69.8121868  48.4275799  86.8565224  69.3975821  47.9145754
  88.2974744  69.8542405  47.8309218 103.6866974  60.6028055  43.2930833
 103.1065643  61.2612859  42.9108886 103.4202906  59.7805399  42.8818251
 102.1370540  60.0033113  45.4952154 102.6370318  60.1149647  44.6866473
 102.7806148  59.6994165  46.1352962  96.1952536  67.9111742  58.3819995
  95.7119618  68.7112102  58.5883884  96.2813475  67.9219687  57.4287439
  89.4638495  69.7440122  46.3041814  89.4409184  69.8427809  45.3523697
  89.7739132  70.5905273  46.6258980  92.1225873  71.8016277  50.4188429
  93.0769127  71.7700219  50.3518360  91.9238397  71.3406901  51.2338654
  92.7125255  70.3717393  52.9859226  93.5318144  70.8661472  53.0094064
  92.9862063  69.4549361  52.9576794 102.4691852  62.7628145  42.3487182
 101.5817707  63.0477796  42.1307376 102.8845841  62.6021909  41.5014459
 105.8206388  62.7874666  46.0641521 106.5966778  63.2771119  46.3366138
 105.0954522  63.2132720  46.5213390 108.2578946  63.5002285  47.1215462
 108.8523437  63.2598021  46.4108770 108.3305530  62.7809416  47.7488998
  90.4776102  77.3435896  47.4358626  90.3430570  76.5836297  46.8696624
  90.0608164  78.0676796  46.9687415 101.6135065  72.5272820  36.4435202
 102.3170915  72.7322822  37.0592857 100.8897714  73.0949582  36.7084285
 102.4432875  68.2782681  42.5637472 102.3868077  68.7351233  41.7245104
 102.9961218  67.5173366  42.3860315 106.2537681  64.0672413  43.3887591
 105.9974616  63.6669049  44.2195799 105.6290549  64.7816207  43.2637731
 110.5650019  66.8068486  45.8958883 110.0049577  66.8761676  46.6690445
 109.9593523  66.6309471  45.1758379  93.6345228  78.2405213  47.6477069
  93.5177612  79.1850646  47.5455759  92.8137674  77.9378775  48.0362868
 103.5221763  72.9655349  38.4933662 104.3567366  72.5336548  38.3111137
 103.3606105  72.7937363  39.4210556 103.1767655  69.4687462  39.8590001
 103.1216459  69.3031734  38.9178445 102.5513710  70.1763495  40.0152191
  87.9660170  64.7055527  53.6851423  88.6119033  64.1954481  54.1738648
  87.7577321  65.4424208  54.2594849 100.4913562  71.7736374  59.1843564
 101.3604722  71.9477027  58.8230199 100.0120313  72.5930791  59.0619293
  96.4863780  58.9695571  39.4375319  96.4742450  59.9137411  39.5943590
  97.3787202  58.7865717  39.1434781  94.6599742  78.8933475  50.8632998
  95.5626989  78.9257086  51.1799492  94.4337112  77.9633926  50.8779333
  96.4153344  77.6464462  47.5243076  95.4648975  77.6466323  47.4107448
  96.7185830  76.8997196  47.0079111 100.3015900  55.5638348  43.6921256
  99.5348295  55.0096835  43.8377939 100.7126605  55.6360217  44.5535408
  92.3057661  61.8523144  57.7826438  93.1689122  61.4959949  57.9929762
  91.7323071  61.5137039  58.4701842 112.1506038  83.4825000  48.5888839
 112.7884448  83.3631748  47.8852179 112.0326881  84.4305844  48.6476791
 108.9595744  83.4352428  48.5250363 108.6214255  83.3193493  47.6370898
 109.8285512  83.0343593  48.5051369 104.8182560  85.2887905  44.5147254
 104.2547425  85.1977842  43.7463542 104.7034955  84.4687809  44.9949747
 109.4415527  84.5887280  54.4836569 109.4304168  84.1940078  53.6117072
 109.6036166  83.8553353  55.0770340 102.3646992  86.7839096  47.3531475
 103.1568283  86.4429921  46.9377774 102.6043642  86.8934071  48.2733628
 110.3982118  88.9558872  39.8261719 109.7470098  89.5412953  39.4395733
 111.1926481  89.4865067  39.8856757 104.3237745  86.0448010  40.2248853
 105.0968621  85.4976997  40.0861729 104.6763144  86.9092259  40.4363315
 106.1622788  87.3724392  53.4315753 105.8712654  88.2770023  53.3162419
 106.7979772  87.4140919  54.1459822 107.0878995  84.7501240  50.0217112
 107.6842567  84.5257263  49.3074075 107.1453966  84.0085986  50.6242560
 106.6604023  82.2040676  37.8567303 106.9129544  81.6822197  37.0950766
 105.7228582  82.0406821  37.9593987 111.7047306  81.2076454  45.6642047
 112.4910395  80.7895877  45.3132464 111.9686010  82.1122546  45.8323695
 111.8757383  86.6449304  40.3630703 111.2403216  86.7183931  41.0751608
 111.5454790  87.2342903  39.6849783 117.1055733  81.1451687  46.5675025
 117.8380905  80.5750904  46.8012855 116.3495089  80.7573288  47.0081531
 106.3800312  84.1068782  40.0591678 106.2636570  83.4313685  40.7272763
 106.4902572  83.6201156  39.2423831 108.7231853  83.5678929  43.7638368
 108.3590060  83.0409550  44.4751289 109.5798969  83.1777398  43.5904853
 114.6281154  74.8573261  51.0269634 114.2964478  75.7268672  50.8030849
 114.0326767  74.5409545  51.7063664 108.3637340  78.5968828  38.7599716
 108.5311742  79.4649065  39.1270187 108.1734509  78.7596110  37.8361005
 111.1212673  87.0585807  50.4265546 110.8213396  87.9610846  50.3181354
 110.7763733  86.7917991  51.2786699 104.5725155  83.5099604  46.4602251
 103.6475651  83.3775818  46.6679943 104.8209568  84.2893823  46.9572193
 114.5209817  79.5768348  48.1062984 113.6126694  79.5083756  47.8121745
 114.4697413  80.0540292  48.9344809 108.3426561  81.0526486  39.7446383
 108.2226186  81.4983537  40.5831863 107.6479149  81.4011804  39.1859921
 101.9333966  83.1532878  47.2946040 102.0626347  83.4067357  48.2085452
 101.2531417  83.7460586  46.9750695 106.1033453  93.8230128  43.3936514
 106.0257483  94.7737953  43.4724995 105.4995097  93.4776000  44.0511440
 108.5950683  80.9957993  56.0497881 107.8184017  81.5551913  56.0400746
 109.2341246  81.4814776  56.5712751 116.3871463  77.7784786  49.8840858
 115.7445844  78.0717319  49.2380652 115.8826392  77.6637706  50.6894054
 114.0411627  81.5247959  40.5726717 114.9529483  81.7575346  40.3974414
 113.5321274  82.1085003  40.0101796 106.8497055  83.8043446  55.6115848
 107.5911739  84.3428490  55.3350672 106.1434040  84.4309735  55.7687400
 112.3252395  85.9472587  54.2088010 112.7335751  85.5054997  53.4642642
 111.6029656  85.3725214  54.4622202 108.6783465  80.8845194  51.5821566
 109.5244660  81.3084607  51.7256215 108.6182102  80.2278818  52.2760130
 112.6481209  86.5073778  47.9640298 112.0190072  86.6719492  47.2616366
 112.2606871  86.9215387  48.7351262 116.5270441  87.4428215  45.3184662
 115.8421479  87.8227117  44.7681695 116.6114291  88.0523542  46.0516610
 111.8282910  78.5449562  53.2402740 111.5843842  79.2991623  52.7037016
 112.1042841  78.9234910  54.0749987 113.7821373  85.0888174  51.9180006
 113.9938268  85.7319934  51.2414387 113.7351121  84.2550491  51.4501936
 111.3847602  77.7005995  48.8216578 110.5232081  77.9987249  49.1133315
 111.4110036  77.9176394  47.8897610 108.2009171  86.2448186  45.2290383
 108.6647517  86.5235889  44.4395006 107.9365969  85.3431630  45.0463474
 105.0933252  85.7919667  48.1670147 105.6634609  86.2206936  47.5287631
 105.6841364  85.5102252  48.8654332 107.1378057  82.3671338  42.0379949
 107.8402101  82.8192382  42.5053875 106.8058686  81.7255157  42.6659842
 105.5858419  80.9583095  56.4131158 104.9557079  81.6399376  56.6466555
 105.4794507  80.8466176  55.4684296 100.8803391  80.6254891  47.3397082
 100.0902445  80.8812419  46.8637193 101.3714639  81.4403229  47.4449123
 114.8967201  87.9660130  50.0902363 115.7184644  87.5640317  49.8085045
 114.8929604  87.8628364  51.0418479 102.8318137  80.9899470  44.2980559
 102.0349300  81.1018164  44.8164055 102.6043729  81.3286122  43.4321449
 108.6623804  87.5144173  52.2463074 108.7268237  87.9764580  53.0821245
 107.9534728  86.8841538  52.3745383  99.1641094  80.8785381  49.7712073
  99.4149133  81.7632391  50.0369649  99.7000643  80.6989983  48.9987165
 108.3771822  89.1812281  42.1142054 108.2417497  90.0263816  42.5426902
 108.9181634  89.3831558  41.3507988 104.8639161  75.2603861  58.7756409
 104.4706107  74.7070059  59.4504053 105.6805302  75.5714439  59.1662927
 101.8301219  86.6987719  42.6869979 102.3425740  87.4930969  42.8375544
 102.4823932  86.0014009  42.6203580 103.6396104  89.8153475  44.7692732
 103.8162732  90.7371440  44.5813716 104.4352937  89.5011894  45.1987112
 107.7807122  76.6761740  56.3676666 108.5216836  77.2768893  56.2881128
 108.0125045  75.9339377  55.8094708 102.9248460  81.8618107  54.6454895
 102.8101976  80.9603364  54.9461994 102.0692978  82.1081804  54.2939712
 110.0040298  89.8035847  56.2442396 109.5604152  89.0172226  55.9263300
 110.6657512  89.9914998  55.5786287 104.7627419  91.3331649  50.7703074
 105.3134845  91.2048712  49.9980068 103.9238895  91.6326538  50.4197967
 112.1021536  90.0838647  54.2723797 112.0840012  90.9047528  53.7804066
 113.0241456  89.9592722  54.4973938 108.5594590  87.5982777  55.1147306
 109.0922927  86.8371065  54.8846614 108.0308672  87.3056428  55.8571460
 111.7264285  72.7042843  50.6440947 111.3828555  73.5944484  50.5680058
 112.0943248  72.5144500  49.7810532  99.7950136  85.0276373  43.4629549
 100.6325358  85.4373381  43.2463257  99.9728404  84.0875815  43.4329743
 111.6914568  82.6951454  39.1513382 111.1761192  83.4656058  39.3901770
 111.4191877  82.0216590  39.7746444 109.2761679  77.5401154  44.2098621
 108.4203276  77.1508005  44.0304259 109.6888631  77.6193115  43.3498406
 110.8060826  75.0747498  48.6090181 110.3025621  75.0377633  47.7957986
 111.0991433  75.9840240  48.6686837 107.0503712  75.1586227  47.6156362
 107.9156708  74.9629036  47.2562252 107.1181221  74.9296579  48.5425719
 116.6648842  85.4483808  41.0866556 115.8878285  85.1094968  40.6421718
 117.3440323  85.4536431  40.4121521 111.4800871  80.5678546  40.9773164
 111.1751007  80.8824695  41.8283307 112.4331313  80.6459966  41.0200497
 109.9247303  86.7268769  42.6266118 109.3968665  85.9921529  42.3139355
 109.4234806  87.5043445  42.3806086 114.9040149  84.9217790  47.7433164
 114.2463824  85.6117051  47.8313293 115.7080548  85.3114221  48.0867150
 104.6566031  77.3888435  44.9872729 105.2309783  77.1663617  44.2545922
 105.2437013  77.4577130  45.7401330 113.7145608  83.2762162  45.7937106
 114.2277490  83.9092154  46.2958815 114.3646832  82.6763358  45.4280466
 104.9835618  79.4192896  39.0068614 104.1472930  79.7567583  39.3277889
 104.8440388  79.2841876  38.0695751 106.9588698  74.2629684  43.7147799
 106.3053111  73.9478701  43.0904413 106.9169173  73.6405425  44.4407621
 108.0699903  84.5448979  35.6301091 107.1626965  84.3138233  35.8292240
 108.5670935  83.7486599  35.8175072 110.9767982  93.2546487  38.5497777
 110.3029681  93.5578183  39.1582735 111.3633804  94.0575567  38.2003234
 110.1926439  80.7511618  48.0395446 109.2749000  80.9726565  47.8817134
 110.6086582  80.8257928  47.1807153 110.9761487  82.1503033  43.1698126
 111.7233306  82.6624431  42.8605248 111.2453076  81.8287086  44.0302520
 109.2488137  84.6461574  40.1525081 108.3399356  84.3620607  40.2497550
 109.2783221  85.0660653  39.2928388 114.4807404  88.2568164  43.9216248
 114.0269731  87.4159074  43.9781439 113.8501371  88.8929562  44.2591028
 113.4240324  79.1860150  45.1516916 112.6863081  78.6737536  45.4827158
 113.6767097  78.7460531  44.3400193 112.9240343  90.0944660  44.8566066
 113.2163318  90.6549717  44.1378432 113.4338964  90.3873221  45.6119226
 113.5251951  71.9636402  45.7458685 113.8310828  71.1033765  45.4584600
 114.2504556  72.5554022  45.5457679  99.8176307  82.3667088  44.1340283
  99.6200707  81.7736449  43.4091349  99.2622971  82.0619299  44.8516222
 107.7973031  82.2590195  46.2534876 107.8521641  81.3064031  46.1777353
 106.9864233  82.4149634  46.7376174 108.9464225  86.1870318  37.4913159
 108.5083655  85.4706177  37.0318797 109.6874665  86.4146433  36.9298251
 105.7365391  80.8767255  44.0125255 104.9233256  81.1761425  44.4190447
 106.2324385  80.4822943  44.7299737 107.8873969  90.8725011  45.9459520
 107.8450147  91.0985858  45.0168052 108.8036667  90.6388386  46.0945321
 111.3339602  81.3409079  52.8440149 111.6888990  81.5680552  53.7034615
 111.9811734  81.6727456  52.2217404 117.0637339  84.4627515  43.5489478
 116.9255238  84.6529111  42.6210667 116.7073558  85.2246898  44.0057529
 105.2279465  78.4485610  49.6286490 105.8678845  78.3074369  48.9309453
 104.3956996  78.1620123  49.2525092 117.0906719  86.5304042  48.5600749
 117.5243226  86.4379331  49.4083803 117.8038300  86.5061542  47.9220765
 106.0039769  87.7488040  45.7421482 106.7980368  87.2538361  45.5404057
 105.2931462  87.2205904  45.3789188 110.8234614  90.1306136  50.0933850
 110.8771636  90.6997072  50.8611566 109.9549395  90.3008021  49.7287887
 102.3122533  81.8931122  41.8181235 101.3820121  81.8315578  42.0351197
 102.4080005  81.3707075  41.0217876 102.2308082  78.4185935  44.4059477
 102.4914899  79.3331268  44.2968637 103.0525254  77.9510378  44.5556089
 103.7033007  79.8323692  51.5758301 104.3756061  79.6241054  50.9270950
 102.8762794  79.6345778  51.1363533 117.9522269  86.5727743  51.0933635
 118.1458159  87.4773553  51.3392910 117.8522887  86.1135162  51.9272220
 109.6058579  76.4585633  53.5923962 108.9586494  77.1575583  53.4988438
 110.3759595  76.8921777  53.9600210 113.0137377  86.7234485  56.6674515
 112.8622884  86.4945037  55.7504599 113.0042057  87.6805087  56.6805860
 109.7822714  84.2966398  51.6520782 110.7114774  84.4477558  51.4789749
 109.3613744  84.3850419  50.7969428 108.5811045  88.3217062  49.4219319
 108.4422131  87.9535847  50.2945258 107.7925642  88.8364702  49.2503277
 109.1759197  93.4226159  40.7644856 109.3510953  92.9514202  41.5790479
 108.4891985  94.0491925  40.9926117 110.1316261  87.6998665  46.8108157
 109.7966093  87.6599435  47.7065807 109.6320206  87.0343381  46.3378567
 104.1060505  83.1066295  52.3360738 103.9680302  82.3746534  52.9372277
 105.0165428  83.0175195  52.0544926 113.0675452  85.0454700  37.0845217
 112.4504623  84.3201528  36.9878270 112.5991941  85.8064060  36.7412291
 106.7342805  82.8186255  51.8244418 107.4442424  82.1779447  51.7831036
 106.6912113  83.0699149  52.7470599 114.7229584  89.7553608  54.7450997
 114.6642130  89.0712828  54.0781580 115.1249102  90.4972598  54.2931623
 105.4471739  79.8051472  53.6440057 104.9109096  79.3542211  54.2961654
 104.8588448  79.9397381  52.9010522 103.7420283  96.5715522  47.5384716
 103.9816881  97.2034046  48.2163735 102.8989479  96.2203562  47.8250075
 104.8573998  79.2640124  36.2066521 103.9803464  79.1428925  35.8428768
 105.3331751  78.4726202  35.9545410 114.7246991  87.7193192  52.9764977
 113.8373770  87.3819114  53.0991376 115.2945542  86.9876223  53.2133742
  96.3776138  84.0517284  46.3008028  97.0647178  83.7379014  45.7129044
  96.2224267  84.9558648  46.0275280 101.1810860  78.9407480  50.7293052
 101.0969049  78.3333150  49.9943462 100.3593567  79.4316498  50.7302548
 108.2548145  92.3794644  49.9426220 108.1818316  93.1849616  50.4545525
 107.8125538  92.5786610  49.1174241 108.0437924  91.6166414  43.4529042
 107.2605446  92.1588094  43.5467266 108.7430669  92.1340394  43.8523283
 111.3534574  77.4261044  46.0963247 111.8503274  76.6731006  45.7764317
 110.5821556  77.4625360  45.5306456 119.2064332  83.1301409  47.7381539
 119.1954208  84.0126125  47.3675472 118.3381711  82.7772960  47.5436076
 110.7146828  92.2781478  52.0984379 111.4274800  92.9128943  52.0260280
 110.2236857  92.3745344  51.2824381 112.4364355  86.1832731  43.6701670
 111.5020634  86.3034193  43.5006375 112.6141023  85.2805198  43.4061680
 107.9369543  79.5678427  45.8234932 107.5667331  79.0149467  46.5115837
 108.4328635  78.9636560  45.2709932 115.8236906  82.0250050  44.2051705
 116.2897358  82.8578042  44.1312007 116.2744407  81.5595032  44.9096963
 105.7658742  90.0275922  52.9189950 106.4668201  90.6612405  53.0719344
 105.2953857  90.3690653  52.1585589 113.8913137  88.3693871  41.2037857
 114.1672981  88.2550466  42.1131731 113.0217636  87.9711356  41.1650030
 113.7953569  74.3930637  48.2442606 112.8816649  74.6234864  48.4124813
 114.2246671  74.4769081  49.0956638 113.5660028  82.5820529  50.7442500
 112.9131478  82.8296437  50.0894953 113.9440407  81.7684667  50.4104977
 110.5267201  92.6180222  44.8470670 110.7089596  91.8001878  45.3098423
 111.3500187  92.8347915  44.4095560 110.8609367  91.5448407  42.1085719
 111.3897133  91.0340862  41.4955881 111.1237586  91.2290938  42.9731252
 109.6147601  83.3240340  57.2308537 108.9388238  83.2234469  57.9010912
 110.4375234  83.1679554  57.6944534 101.3626460  89.5612277  49.8521052
 101.9479896  88.8155965  49.9848956 101.1651298  89.8716233  50.7357716
 104.2165115  92.5963524  44.8683495 103.5475490  93.0809652  44.3847535
 104.0777985  92.8432745  45.7826873  95.9544114  82.1317877  48.5725495
  95.9928214  81.5981468  49.3662614  95.4484407  81.6053082  47.9536473
 108.3570383  94.6307268  51.4666153 108.9088691  94.7938889  52.2315238
 108.6976577  95.2211705  50.7946178 103.3334877  76.9782417  52.0688038
 103.3976203  77.8397248  51.6565435 103.2701997  76.3656419  51.3360396
 102.8087149  79.0505550  55.7161072 103.4359188  78.6682627  56.3298596
 101.9515068  78.8319752  56.0816764 113.2081258  89.4568525  57.3214807
 113.7521162  90.0698483  56.8269762 112.6268103  90.0148104  57.8381820
  99.5852692  80.8581979  41.6479427  99.8806133  79.9492657  41.5946480
  98.6840728  80.8369718  41.3260429 111.4938771  92.5789243  48.4529835
 111.3689910  91.7778983  47.9440781 112.1517862  93.0735436  47.9643805
 103.1146939  78.9337976  47.6306975 102.3933525  79.5473943  47.4914449
 103.9040195  79.4695740  47.5523621 113.5573679  90.3798263  50.0809385
 112.6104015  90.2603614  50.0087712 113.9056452  89.4920761  50.1635647
 105.9173252  76.2692402  53.9047627 106.4407654  76.5154699  54.6673936
 105.6985586  77.1012437  53.4850764 101.3140534  78.5396077  41.7718752
 100.9853240  77.6593456  41.5893858 101.6679904  78.4843745  42.6595141
 110.5620112  90.1750979  46.2813737 110.4145075  89.2467687  46.4621308
 111.3873606  90.1971070  45.7970813 104.4282357  78.8269047  42.1394230
 104.7678429  79.3554968  41.4172838 104.8754477  79.1649453  42.9152796
 114.1654234  90.9979538  47.3678610 115.0900782  90.7922399  47.2303061
 113.9969538  90.7495939  48.2767952 107.1225798  77.2106097  51.5897298
 106.7822618  76.4113910  51.9917978 106.4164804  77.5107808  51.0174131
 107.7742269  74.2955410  50.0424621 108.5968339  73.8215888  49.9203511
 108.0180333  75.0745893  50.5423307 106.4150504  77.3243668  40.3387522
 107.1358866  77.7024921  39.8351239 105.7915808  78.0432545  40.4422500
 110.5581627  78.0288817  41.2745855 110.7745241  78.9113455  40.9734683
 110.0775694  77.6375030  40.5451497 105.2980848  80.9874530  47.8516599
 105.1525429  81.3014833  48.7440881 104.8206052  81.6059431  47.2987498
 107.1577231  77.9777078  47.8997489 107.1438800  77.0818172  47.5629787
 107.8749659  77.9847742  48.5335775 109.0103362  78.4114418  49.9450616
 108.7521140  79.3331489  49.9434947 108.4788402  78.0144853  50.6351080
 113.9549550  91.5165206  42.7240702 114.1286428  90.9511628  41.9714554
 114.4478442  92.3166100  42.5420192  99.7726510  83.5279875  50.7904260
  99.2279978  84.3039683  50.9224535 100.6505860  83.8750679  50.6323382
 106.5614127  76.8591459  43.1685059 106.6830038  75.9308105  43.3675947
 106.2716169  76.8730145  42.2563374 109.4305317  74.5446369  46.3051779
 109.4527014  74.6085702  45.3503758 109.8473376  73.7050878  46.4992285
 119.8088942  84.2801629  44.3431001 120.2520088  83.5308954  43.9450125
 118.9315452  84.2711765  43.9604733 114.9424723  90.8331970  39.8237600
 115.6375628  91.4538663  40.0424915 115.2847873  89.9827321  40.0989978
 100.5592532  82.6549771  53.6834417  99.8174268  82.8032406  54.2699048
 100.2385276  82.9158037  52.8201167 116.8416146  88.2831676  41.3524931
 117.3667470  88.6218948  40.6274251 116.7538499  87.3478691  41.1688065
 108.5036195  92.1965749  53.4814807 108.8123321  91.9514896  54.3537507
 109.3011677  92.4012388  52.9933678 108.5256807  94.3503659  45.7120184
 108.0861797  93.8580038  46.4053041 109.2764924  93.8076626  45.4712259
 101.0049146  90.5415200  45.7144812 101.8307166  90.2418972  45.3343456
 100.6543198  89.7722822  46.1634601 105.9730679  89.8941668  47.7842486
 105.3510688  89.2312373  47.4844713 106.6435546  89.9202800  47.1016133
  99.2057751  88.4601526  46.6733746  98.3689659  88.0323700  46.4917747
  99.1781396  88.6533969  47.6104537 106.0455206  78.3723456  57.3774992
 106.0943362  79.2485579  56.9952761 106.5877721  77.8300849  56.8046635
 116.5310052  88.9164579  56.6576129 115.7405596  88.8988718  56.1180628
 116.2943407  89.4552873  57.4125165 116.6507927  85.7657046  53.9708857
 116.7005932  85.6007053  54.9124380 116.5421851  84.8984305  53.5806738
 105.5344186  88.4445591  41.2600946 105.6832306  89.1281056  40.6067619
 106.3410629  88.4250681  41.7750402 113.9411690  81.7487974  55.2868164
 114.8421552  81.6094438  54.9952162 114.0159664  81.9142428  56.2266341
 108.2754495  79.1254828  54.1321350 107.4057804  79.4188394  53.8603939
 108.5113975  79.7095273  54.8528614 118.1526124  88.1853987  54.2150879
 117.8610932  88.5483968  55.0514340 117.5398255  87.4720995  54.0364211
 119.3521806  85.7506867  46.7353449 120.1868698  86.1896671  46.8991009
 119.4880935  85.2745520  45.9161695 116.4013312  83.3086602  52.6830937
 116.8767434  83.5014248  51.8749788 115.4778878  83.3645788  52.4374320
 103.2896819  84.4710769  42.2662015 103.0442861  83.5673099  42.4642225
 103.4592733  84.4727919  41.3241493 110.9793529  75.3434445  51.6486771
 111.4975473  76.0795472  51.3233259 110.6248662  75.6498439  52.4833530
 102.5592466  80.2039126  39.7648177 101.8661711  80.2783481  39.1088212
 102.3144218  79.4399470  40.2869693 111.2306123  71.7634728  47.1687667
 111.5107877  71.0957917  47.7948094 112.0156730  71.9563823  46.6562331
 109.0339591  90.9393722  38.7312694 108.4613558  91.5583909  38.2783165
 109.6072385  91.4893083  39.2652616 115.1014981  80.1852362  50.9159242
 116.0532404  80.2850459  50.9371466 114.9318432  79.3930630  51.4257327
 113.1229361  77.2707945  51.1018643 112.5279293  77.5512958  50.4065132
 112.8379057  77.7601846  51.8735384 112.2536851  91.2230872  39.8621276
 113.1867524  91.1576434  40.0654151 112.1660064  92.0587139  39.4035808
 114.8824868  90.5396742  36.8225223 114.8038499  90.2056606  37.7160981
 115.7034535  91.0318510  36.8216696 117.5803059  83.4058481  50.0301542
 117.5479379  82.4674482  50.2161226 118.1903683  83.4842518  49.2967367
 109.4186390  82.2754534  36.0728746 110.3645495  82.1460743  36.1417164
 109.0400635  81.5369196  36.5498174 117.7297548  80.1969525  50.0759825
 117.2136596  79.4127982  49.8889754 118.6137496  79.8688242  50.2406345
 115.3908274  73.9410540  46.0355638 115.1933096  73.6325629  46.9198970
 116.0007980  74.6672179  46.1653568 109.3025082  86.3272281  57.5329403
 110.2228092  86.5050880  57.7269450 109.2674665  85.3828326  57.3809102
 107.6029307  80.2004511  36.0083631 106.6960762  79.9037624  36.0846345
 107.8805288  79.9034329  35.1417918  98.5207247  81.5210874  46.4582678
  98.2010032  80.6676182  46.1657052  97.9740676  81.7359452  47.2140645
 102.2987155  84.2373315  50.1752184 102.5173165  85.1690423  50.1940218
 102.7112929  83.8781290  50.9606988 109.2191373  74.7441401  42.1627873
 108.4092101  74.3988486  42.5383119 109.9075790  74.4348944  42.7515484
 111.1481921  73.8219447  43.7852169 111.7012960  74.2414901  44.4442192
 111.3852007  72.8955195  43.8275125 107.1715020  79.8106521  59.5654933
 107.0711747  80.7600878  59.4967024 106.9536562  79.4824760  58.6931003
 106.3728092  77.0591446  36.1495610 107.2347256  77.3846344  36.4091428
 106.5578436  76.2722942  35.6368676  98.3895507  85.1413786  48.4275799
  97.6958979  84.7267739  47.9145754  99.1368498  85.1834322  47.8309218
 114.5260728  75.9319973  43.2930833 113.9459397  76.5904777  42.9108886
 114.2596661  75.1097317  42.8818251 112.9764295  75.3325030  45.4952154
 113.4764073  75.4441565  44.6866473 113.6199902  75.0286083  46.1352962
 107.0346290  83.2403660  58.3819995 106.5513372  84.0404020  58.5883884
 107.1207229  83.2511605  57.4287439 100.3032250  85.0732040  46.3041814
 100.2802938  85.1719727  45.3523697 100.6132886  85.9197190  46.6258980
 102.9619628  87.1308195  50.4188429 103.9162881  87.0992137  50.3518360
 102.7632151  86.6698818  51.2338654 103.5519010  85.7009311  52.9859226
 104.3711899  86.1953389  53.0094064 103.8255818  84.7841279  52.9576794
 113.3085606  78.0920063  42.3487182 112.4211461  78.3769714  42.1307376
 113.7239595  77.9313826  41.5014459 116.6600142  78.1166584  46.0641521
 117.4360532  78.6063036  46.3366138 115.9348276  78.5424638  46.5213390
 119.0972701  78.8294203  47.1215462 119.6917192  78.5889939  46.4108770
 119.1699285  78.1101334  47.7488998 101.3169857  92.6727814  47.4358626
 101.1824325  91.9128215  46.8696624 100.9001919  93.3968714  46.9687415
 112.4528820  87.8564738  36.4435202 113.1564670  88.0614740  37.0592857
 111.7291468  88.4241499  36.7084285 113.2826630  83.6074599  42.5637472
 113.2261831  84.0643150  41.7245104 113.8354972  82.8465283  42.3860315
 117.0931436  79.3964331  43.3887591 116.8368370  78.9960966  44.2195799
 116.4684304  80.1108125  43.2637731 104.4738982  93.5697131  47.6477069
 104.3571367  94.5142564  47.5455759 103.6531429  93.2670693  48.0362868
 114.3615517  88.2947267  38.4933662 115.1961121  87.8628465  38.3111137
 114.1999860  88.1229280  39.4210556 114.0161409  84.7979380  39.8590001
 113.9610213  84.6323652  38.9178445 113.3907464  85.5055413  40.0152191
 111.3307316  87.1028292  59.1843564 112.1998476  87.2768944  58.8230199
 110.8514068  87.9222709  59.0619293 107.3257535  74.2987489  39.4375319
 107.3136205  75.2429329  39.5943590 108.2180957  74.1157634  39.1434781
 105.4993497  94.2225393  50.8632998 106.4020743  94.2549003  51.1799492
 105.2730867  93.2925844  50.8779333 107.2547099  92.9756379  47.5243076
 106.3042730  92.9758241  47.4107448 107.5579585  92.2289114  47.0079111
 111.1409654  70.8930266  43.6921256 110.3742050  70.3388752  43.8377939
 111.5520359  70.9652134  44.5535408 103.1451415  77.1815062  57.7826438
 104.0082877  76.8251866  57.9929762 102.5716826  76.8428956  58.4701842
 115.6576314 100.6179822  44.5147254 115.0941179 100.5269759  43.7463542
 115.5428709  99.7979727  44.9949747 120.2809281  99.9179198  54.4836569
 120.2697922  99.5231996  53.6117072 120.4429921  99.1845270  55.0770340
 113.2040746 102.1131014  47.3531475 113.9962038 101.7721839  46.9377774
 113.4437396 102.2225989  48.2733628 115.1631500 101.3739927  40.2248853
 115.9362376 100.8268914  40.0861729 115.5156899 102.2384177  40.4363315
 117.0016543 102.7016310  53.4315753 116.7106409 103.6061940  53.3162419
 117.6373527 102.7432837  54.1459822 117.9272749 100.0793158  50.0217112
 118.5236322  99.8549180  49.3074075 117.9847721  99.3377904  50.6242560
 117.4997778  97.5332593  37.8567303 117.7523298  97.0114115  37.0950766
 116.5622337  97.3698739  37.9593987 117.2194067  99.4360699  40.0591678
 117.1030325  98.7605603  40.7272763 117.3296326  98.9493073  39.2423831
 119.5625607  98.8970846  43.7638368 119.1983815  98.3701467  44.4751289
 120.4192723  98.5069315  43.5904853 119.2031094  93.9260746  38.7599716
 119.3705497  94.7940983  39.1270187 119.0128264  94.0888028  37.8361005
 115.4118909  98.8391522  46.4602251 114.4869406  98.7067736  46.6679943
 115.6603322  99.6185741  46.9572193 119.1820315  96.3818404  39.7446383
 119.0619941  96.8275454  40.5831863 118.4872904  96.7303721  39.1859921
 112.7727720  98.4824795  47.2946040 112.9020101  98.7359274  48.2085452
 112.0925171  99.0752503  46.9750695 119.4344437  96.3249911  56.0497881
 118.6577771  96.8843831  56.0400746 120.0735000  96.8106694  56.5712751
 117.6890810  99.1335364  55.6115848 118.4305494  99.6720408  55.3350672
 116.9827795  99.7601653  55.7687400 119.5177219  96.2137111  51.5821566
 120.3638414  96.6376525  51.7256215 119.4575857  95.5570736  52.2760130
 119.0402926 101.5740103  45.2290383 119.5041271 101.8527806  44.4395006
 118.7759724 100.6723548  45.0463474 115.9327007 101.1211585  48.1670147
 116.5028364 101.5498853  47.5287631 116.5235119 100.8394170  48.8654332
 117.9771812  97.6963256  42.0379949 118.6795855  98.1484299  42.5053875
 117.6452440  97.0547075  42.6659842 116.4252173  96.2875012  56.4131158
 115.7950834  96.9691293  56.6466555 116.3188261  96.1758094  55.4684296
 111.7197146  95.9546808  47.3397082 110.9296200  96.2104337  46.8637193
 112.2108393  96.7695146  47.4449123 113.6711891  96.3191388  44.2980559
 112.8743054  96.4310082  44.8164055 113.4437483  96.6578040  43.4321449
 119.5017559 102.8436091  52.2463074 119.5661991 103.3056498  53.0821245
 118.7928483 102.2133456  52.3745383 110.0034849  96.2077299  49.7712073
 110.2542887  97.0924309  50.0369649 110.5394397  96.0281900  48.9987165
 115.7032916  90.5895778  58.7756409 115.3099862  90.0361977  59.4504053
 116.5199056  90.9006357  59.1662927 112.6694974 102.0279636  42.6869979
 113.1819494 102.8222887  42.8375544 113.3217687 101.3305927  42.6203580
 114.4789858 105.1445393  44.7692732 114.6556487 106.0663357  44.5813716
 115.2746692 104.8303812  45.1987112 118.6200877  92.0053657  56.3676666
 119.3610590  92.6060810  56.2881128 118.8518800  91.2631295  55.8094708
 113.7642215  97.1910025  54.6454895 113.6495730  96.2895282  54.9461994
 112.9086733  97.4373721  54.2939712 119.3988345 102.9274694  55.1147306
 119.9316682 102.1662982  54.8846614 118.8702426 102.6348346  55.8571460
 110.6343891 100.3568291  43.4629549 111.4719113 100.7665299  43.2463257
 110.8122158  99.4167733  43.4329743 117.8897466  90.4878145  47.6156362
 118.7550463  90.2920954  47.2562252 117.9574975  90.2588497  48.5425719
 115.4959785  92.7180353  44.9872729 116.0703537  92.4955535  44.2545922
 116.0830768  92.7869048  45.7401330 115.8229372  94.7484814  39.0068614
 114.9866685  95.0859501  39.3277889 115.6834142  94.6133794  38.0695751
 117.7982453  89.5921602  43.7147799 117.1446865  89.2770619  43.0904413
 117.7562927  88.9697342  44.4407621 118.9093658  99.8740897  35.6301091
 118.0020720  99.6430150  35.8292240 119.4064690  99.0778516  35.8175072
 120.0881891  99.9753492  40.1525081 119.1793111  99.6912525  40.2497550
 120.1176975 100.3952570  39.2928388 110.6570062  97.6959006  44.1340283
 110.4594461  97.1028367  43.4091349 110.1016726  97.3911216  44.8516222
 118.6366785  97.5882112  46.2534876 118.6915395  96.6355949  46.1777353
 117.8257987  97.7441552  46.7376174 116.5759145  96.2059172  44.0125255
 115.7627011  96.5053343  44.4190447 117.0718139  95.8114861  44.7299737
 116.0673220  93.7777528  49.6286490 116.7072599  93.6366287  48.9309453
 115.2350751  93.4912041  49.2525092 116.8433524 103.0779958  45.7421482
 117.6374122 102.5830278  45.5404057 116.1325216 102.5497821  45.3789188
 113.1516287  97.2223040  41.8181235 112.2213875  97.1607495  42.0351197
 113.2473759  96.6998993  41.0217876 113.0701836  93.7477853  44.4059477
 113.3308654  94.6623186  44.2968637 113.8919009  93.2802295  44.5556089
 114.5426762  95.1615610  51.5758301 115.2149815  94.9532972  50.9270950
 113.7156548  94.9637696  51.1363533 119.4204800 103.6508980  49.4219319
 119.2815886 103.2827765  50.2945258 118.6319396 104.1656620  49.2503277
 114.9454259  98.4358213  52.3360738 114.8074057  97.7038452  52.9372277
 115.8559182  98.3467113  52.0544926 117.5736560  98.1478172  51.8244418
 118.2836178  97.5071364  51.7831036 117.5305868  98.3991067  52.7470599
 116.2865494  95.1343390  53.6440057 115.7502851  94.6834129  54.2961654
 115.6982202  95.2689299  52.9010522 115.6967753  94.5932041  36.2066521
 114.8197219  94.4720842  35.8428768 116.1725506  93.8018120  35.9545410
 107.2169893  99.3809201  46.3008028 107.9040933  99.0670931  45.7129044
 107.0618021 100.2850566  46.0275280 112.0204615  94.2699398  50.7293052
 111.9362804  93.6625067  49.9943462 111.1987321  94.7608416  50.7302548
 118.7763297  94.8970344  45.8234932 118.4061085  94.3441385  46.5115837
 119.2722390  94.2928478  45.2709932 112.2020214 104.8904194  49.8521052
 112.7873651 104.1447882  49.9848956 112.0045053 105.2008151  50.7357716
 106.7937869  97.4609795  48.5725495 106.8321968  96.9273385  49.3662614
 106.2878162  96.9345000  47.9536473 114.1728631  92.3074335  52.0688038
 114.2369958  93.1689166  51.6565435 114.1095751  91.6948337  51.3360396
 113.6480904  94.3797468  55.7161072 114.2752942  93.9974545  56.3298596
 112.7908823  94.1611670  56.0816764 110.4246446  96.1873897  41.6479427
 110.7199888  95.2784575  41.5946480 109.5234482  96.1661636  41.3260429
 113.9540693  94.2629893  47.6306975 113.2327279  94.8765861  47.4914449
 114.7433949  94.7987658  47.5523621 116.7567007  91.5984320  53.9047627
 117.2801409  91.8446616  54.6673936 116.5379340  92.4304355  53.4850764
 112.1534288  93.8687994  41.7718752 111.8246994  92.9885373  41.5893858
 112.5073659  93.8135663  42.6595141 115.2676111  94.1560964  42.1394230
 115.6072184  94.6846885  41.4172838 115.7148232  94.4941370  42.9152796
 117.9619552  92.5398015  51.5897298 117.6216372  91.7405828  51.9917978
 117.2558558  92.8399726  51.0174131 118.6136024  89.6247327  50.0424621
 119.4362093  89.1507806  49.9203511 118.8574087  90.4037811  50.5423307
 117.2544258  92.6535586  40.3387522 117.9752621  93.0316839  39.8351239
 116.6309562  93.3724463  40.4422500 116.1374603  96.3166448  47.8516599
 115.9919183  96.6306751  48.7440881 115.6599806  96.9351348  47.2987498
 117.9970985  93.3068996  47.8997489 117.9832554  92.4110089  47.5629787
 118.7143414  93.3139660  48.5335775 119.8497116  93.7406336  49.9450616
 119.5914894  94.6623407  49.9434947 119.3182157  93.3436771  50.6351080
 110.6120265  98.8571792  50.7904260 110.0673733  99.6331600  50.9224535
 111.4899615  99.2042597  50.6323382 117.4007881  92.1883376  43.1685059
 117.5223793  91.2600022  43.3675947 117.1109924  92.2022062  42.2563374
 111.3986287  97.9841689  53.6834417 110.6568023  98.1324324  54.2699048
 111.0779031  98.2449954  52.8201167 111.8442900 105.8707117  45.7144812
 112.6700920 105.5710889  45.3343456 111.4936952 105.1014740  46.1634601
 116.8124433 105.2233586  47.7842486 116.1904443 104.5604291  47.4844713
 117.4829300 105.2494717  47.1016133 110.0451505 103.7893444  46.6733746
 109.2083414 103.3615618  46.4917747 110.0175151 103.9825887  47.6104537
 116.8848961  93.7015374  57.3774992 116.9337116  94.5777496  56.9952761
 117.4271475  93.1592767  56.8046635 116.3737940 103.7737509  41.2600946
 116.5226061 104.4572973  40.6067619 117.1804384 103.7542599  41.7750402
 119.1148249  94.4546746  54.1321350 118.2451559  94.7480312  53.8603939
 119.3507730  95.0387191  54.8528614 114.1290573  99.8002687  42.2662015
 113.8836615  98.8965017  42.4642225 114.2986488  99.8019837  41.3241493
 113.3986221  95.5331044  39.7648177 112.7055466  95.6075399  39.1088212
 113.1537973  94.7691388  40.2869693 118.4423062  95.5296429  36.0083631
 117.5354517  95.2329541  36.0846345 118.7199043  95.2326247  35.1417918
 109.3601002  96.8502792  46.4582678 109.0403786  95.9968100  46.1657052
 108.8134430  97.0651370  47.2140645 113.1380909  99.5665233  50.1752184
 113.3566919 100.4982341  50.1940218 113.5506683  99.2073207  50.9606988
 118.0108775  95.1398439  59.5654933 117.9105502  96.0892796  59.4967024
 117.7930317  94.8116678  58.6931003 117.2121846  92.3883364  36.1495610
 118.0741010  92.7138262  36.4091428 117.3972190  91.6014860  35.6368676
 109.2289262 100.4705703  48.4275799 108.5352733 100.0559656  47.9145754
 109.9762253 100.5126240  47.8309218 117.8740045  98.5695578  58.3819995
 117.3907127  99.3695938  58.5883884 117.9600984  98.5803522  57.4287439
 111.1426004 100.4023957  46.3041814 111.1196693 100.5011644  45.3523697
 111.4526641 101.2489108  46.6258980 113.8013382 102.4600112  50.4188429
 114.7556636 102.4284055  50.3518360 113.6025906 101.9990736  51.2338654
 114.3912764 101.0301228  52.9859226 115.2105653 101.5245307  53.0094064
 114.6649572 100.1133196  52.9576794 112.1563611 108.0019732  47.4358626
 112.0218079 107.2420133  46.8696624 111.7395673 108.7260632  46.9687415
 109.6447679  95.3639362  53.6851423 110.2906542  94.8538316  54.1738648
 109.4364830  96.1008044  54.2594849 118.1651289  89.6279407  39.4375319
 118.1529959  90.5721247  39.5943590 119.0574711  89.4449552  39.1434781
 113.9845170  92.5106979  57.7826438 114.8476631  92.1543784  57.9929762
 113.4110580  92.1720874  58.4701842  51.9064682  -5.8167338  30.1181821
  51.8288711  -4.8659513  30.1970301  51.3026325  -6.1621466  30.7756747
  49.5451511  -3.0681944  34.2630023  49.7848110  -2.4363420  34.9409041
  48.7020708  -3.4193904  34.5495382  54.1601612  -5.0090198  38.1911460
  54.7119920  -4.8458577  38.9560545  54.5007806  -4.4185760  37.5191484
  47.1201085  -6.9669652  34.1603933  46.9855553  -7.7269251  33.5941931
  46.7033148  -6.2428752  33.6932722  50.2770211  -6.0700335  34.3722376
  50.1602595  -5.1254902  34.2701066  49.4562658  -6.3726773  34.7608175
  51.3024725  -5.4172073  37.5878304  52.2051972  -5.3848463  37.9044799
  51.0762095  -6.3471622  37.6024640  61.4607543   0.9782357  31.2392561
  60.8972408   0.8872294  30.4708849  61.3459938   0.1582261  31.7195053
  66.0840510   0.2781732  41.2081875  66.0729151  -0.1165470  40.3362379
  66.2461150  -0.4552195  41.8015647  59.0071975   2.4733548  34.0776781
  59.7993267   2.1324373  33.6623081  59.2468625   2.5828523  34.9978935
  67.0407102   4.6453324  26.5507026  66.3895081   5.2307405  26.1641039
  67.8351464   5.1759519  26.6102063  60.9662729   1.7342461  26.9494160
  61.7393605   1.1871449  26.8107036  61.3188128   2.5986711  27.1608621
  62.8047771   3.0618844  40.1561059  62.5137637   3.9664475  40.0407726
  63.4404756   3.1035371  40.8705129  63.7303978   0.4395692  36.7462419
  64.3267550   0.2151715  36.0319382  63.7878950  -0.3019562  37.3487867
  68.5182367   2.3343756  27.0876010  67.8828200   2.4078383  27.7996915
  68.1879773   2.9237355  26.4095089  63.0225295  -0.2036766  26.7836985
  62.9061553  -0.8791863  27.4518069  63.1327555  -0.6904393  25.9669138
  67.7637656   2.7480259  37.1510853  67.4638380   3.6505298  37.0426660
  67.4188716   2.4812442  38.0032006  61.2150138  -0.8005944  33.1847557
  60.2900634  -0.9329730  33.3925249  61.4634551  -0.0211725  33.6817500
  58.5758949  -1.1572670  34.0191347  58.7051330  -0.9038191  34.9330758
  57.8956400  -0.5644962  33.6996002  62.7458436   9.5124580  30.1181821
  62.6682466  10.4632405  30.1970301  62.1420080   9.1670452  30.7756747
  63.4922038  -0.5062102  42.3361155  64.2336723   0.0322942  42.0595978
  62.7859024   0.1204187  42.4932706  68.9677378   1.6367039  40.9333316
  69.3760734   1.1949449  40.1887948  68.2454639   1.0619666  41.1867509
  69.2906193   2.1968229  34.6885605  68.6615055   2.3613944  33.9861673
  68.9031855   2.6109839  35.4596569  73.1695424   3.1322667  32.0429969
  72.4846463   3.5121569  31.4927002  73.2539274   3.7417994  32.7761917
  64.8434154   1.9342638  31.9535690  65.3072500   2.2130341  31.1640313
  64.5790953   1.0326082  31.7708781  61.7358236   1.4814119  34.8915453
  62.3059593   1.9101387  34.2532938  62.3266347   1.1996704  35.5899639
  57.5228374  -3.6850657  34.0642389  56.7327428  -3.4293129  33.5882499
  58.0139622  -2.8702320  34.1694429  71.5392184   3.6554582  36.8147670
  72.3609628   3.2534769  36.5330351  71.5354587   3.5522816  37.7663785
  59.4743120  -3.3206078  31.0225866  58.6774283  -3.2087384  31.5409361
  59.2468712  -2.9819426  30.1566756  65.3048787   3.2038625  38.9708380
  65.3693220   3.6659032  39.8066552  64.5959711   2.5735990  39.0990690
  55.8066077  -3.4320167  36.4957380  56.0574116  -2.5473157  36.7614956
  56.3425626  -3.6115565  35.7232471  65.0196805   4.8706733  28.8387360
  64.8842480   5.7158268  29.2672208  65.5606618   5.0726010  28.0753294
  58.4726203   2.3882171  29.4115286  58.9850723   3.1825421  29.5620850
  59.1248915   1.6908461  29.3448887  60.2821087   5.5047927  31.4938039
  60.4587716   6.4265892  31.3059023  61.0777921   5.1906346  31.9232419
  59.5673444  -2.4487441  41.3700202  59.4526959  -3.3502184  41.6707301
  58.7117962  -2.2023744  41.0185018  66.6465282   5.4930299  42.9687703
  66.2029136   4.7066678  42.6508607  67.3082495   5.6809450  42.3031593
  61.4052403   7.0226101  37.4948381  61.9559828   6.8943164  36.7225375
  60.5663879   7.3220990  37.1443274  68.7446520   5.7733099  40.9969104
  68.7264995   6.5941980  40.5049373  69.6666440   5.6487174  41.2219245
  65.2019574   3.2877228  41.8392612  65.7347911   2.5265517  41.6091920
  64.6733655   2.9950880  42.5816767  56.4375119   0.7170825  30.1874856
  57.2750341   1.1267833  29.9708564  56.6153387  -0.2229733  30.1575050
  66.5672286   2.4163221  29.3511424  66.0393648   1.6815981  29.0384662
  66.0659789   3.1937897  29.1051393  64.7124887   0.2343431  22.3546397
  63.8051948   0.0032685  22.5537546  65.2095919  -0.5618950  22.5420379
  67.6192966   8.9440938  25.2743083  66.9454664   9.2472635  25.8828041
  68.0058787   9.7470019  24.9248540  65.8913120   0.3356026  26.8770387
  64.9824339   0.0515059  26.9742857  65.9208204   0.7555105  26.0173694
  71.1232387   3.9462616  30.6461555  70.6694715   3.1053525  30.7026745
  70.4926354   4.5824014  30.9836335  69.5665327   5.7839112  31.5811373
  69.8588301   6.3444169  30.8623739  70.0763947   6.0767673  32.3364532
  56.4601290  -1.9438460  30.8585590  56.2625690  -2.5369099  30.1336656
  55.9047954  -2.2486250  31.5761528  65.5889208   1.8764770  24.2158466
  65.1508638   1.1600629  23.7564103  66.3299649   2.1040885  23.6543557
  64.5298952   6.5619463  32.6704826  64.4875131   6.7880310  31.7413358
  65.4461651   6.3282838  32.8190627  73.7331702   2.2198494  35.2846056
  74.1668209   2.1273783  36.1329110  74.4463283   2.1955994  34.6466072
  62.6464753   3.4382492  32.4666789  63.4405351   2.9432813  32.2649364
  61.9356445   2.9100356  32.1034495  67.4659597   5.8200588  36.8179157
  67.5196619   6.3891524  37.5856872  66.5974379   5.9902473  36.4533194
  58.9547516  -2.4174426  28.5426542  58.0245104  -2.4789970  28.7596504
  59.0504988  -2.9398473  27.7463183  69.6562361   2.4128937  43.3919822
  69.5047867   2.1839489  42.4749906  69.6467040   3.3699539  43.4051167
  66.4247697  -0.0139150  38.3766088  67.3539757   0.1372010  38.2035056
  66.0038727   0.0744871  37.5214735  65.2236029   4.0111514  36.1464626
  65.0847114   3.6430299  37.0190564  64.4350625   4.5259154  35.9748584
  65.8184181   9.1120611  27.4890163  65.9935936   8.6408654  28.3035785
  65.1316969   9.7386377  27.7171423  66.7741244   3.3893117  33.5353464
  66.4391076   3.3493887  34.4311114  66.2745190   2.7237833  33.0623874
  60.7485488  -1.2039253  39.0606045  60.6105286  -1.9359014  39.6617584
  61.6590411  -1.2930353  38.7790233  69.7100435   0.7349151  23.8090523
  69.0929606   0.0095980  23.7123576  69.2416924   1.4958512  23.4657598
  71.3654567   5.4448060  41.4696304  71.3067113   4.7607280  40.8026887
  71.7674086   6.1867050  41.0176930  60.3845266  12.2609974  34.2630023
  60.6241864  12.8928498  34.9409041  59.5414462  11.9098014  34.5495382
  71.3671974   3.4087644  39.7010284  70.4798753   3.0713565  39.8236682
  71.9370525   2.6770675  39.9379049  53.0201122  -0.2588265  33.0253335
  53.7072161  -0.5726535  32.4374350  52.8649250   0.6453100  32.7520586
  64.8973128   8.0689096  36.6671527  64.8243299   8.8744068  37.1790831
  64.4550521   8.2681062  35.8419548  64.6862907   7.3060866  30.1774348
  63.9030429   7.8482546  30.2712573  65.3855653   7.8234846  30.5768589
  67.3571811   7.9675930  38.8229685  68.0699784   8.6023395  38.7505587
  66.8661840   8.0639796  38.0069687  69.0789338   1.8727183  30.3946977
  68.1445617   1.9928645  30.2251681  69.2566007   0.9699650  30.1306987
  62.4083725   5.7170374  39.6435256  63.1093184   6.3506856  39.7964650
  61.9378840   6.0585105  38.8830895  70.5338121   4.0588323  27.9283163
  70.8097965   3.9444918  28.8377037  69.6642619   3.6605808  27.8895336
  67.1692185   8.3074674  31.5715977  67.3514579   7.4896330  32.0343729
  67.9925171   8.5242366  31.1340867  67.5034350   7.2342859  28.8331025
  68.0322117   6.7235314  28.2201187  67.7662570   6.9185390  29.6976558
  58.0051443   5.2506729  36.5766359  58.5904880   4.5050416  36.7094263
  57.8076281   5.5610685  37.4603023  60.8590098   8.2857976  31.5928801
  60.1900473   8.7704104  31.1092841  60.7202968   8.5327196  32.5072180
  52.5969098  -2.1787671  35.2970802  52.6353197  -2.7124081  36.0907920
  52.0909390  -2.7052466  34.6781779  64.9995367  10.3201719  38.1911460
  65.5513675  10.4833341  38.9560545  65.3401560  10.9106157  37.5191484
  69.8506241   5.1462977  44.0460114  70.3946145   5.7592935  43.5515069
  69.2693086   5.7042555  44.5627127  56.2277675  -3.4523569  28.3724733
  56.5231116  -4.3612891  28.3191787  55.3265711  -3.4735830  28.0505736
  68.1363754   8.2683695  35.1775142  68.0114893   7.4673435  34.6686087
  68.7942845   8.7629888  34.6889112  70.1998662   6.0692715  36.8054692
  69.2528998   5.9498066  36.7333019  70.5481436   5.1815213  36.8880953
  67.2045096   5.8645431  33.0059044  67.0570058   4.9362139  33.1866614
  68.0298589   5.8865522  32.5216119  70.8079218   6.6873990  34.0923917
  71.7325765   6.4816851  33.9548368  70.6394521   6.4390391  35.0013258
  70.5974534   7.2059657  29.4486008  70.7711411   6.6406080  28.6959861
  71.0903425   8.0060552  29.2665498  56.4151494  -0.7825673  37.5149567
  55.8704962  -0.0065865  37.6469841  57.2930843  -0.4354869  37.3568689
  71.5849706   6.5226422  26.5482907  72.2800611   7.1433115  26.7670221
  71.9272856   5.6721773  26.8235284  57.2017515  -1.6555777  40.4079724
  56.4599251  -1.5073142  40.9944354  56.8810260  -1.3947512  39.5446473
  73.4841129   3.9726127  28.0770237  74.0092453   4.3113400  27.3519557
  73.3963482   3.0373143  27.8933372  65.1461178   7.8860201  40.2060114
  65.4548305   7.6409348  41.0782814  65.9436660   8.0906840  39.7178984
  65.1681790  10.0398111  32.4365491  64.7286780   9.5474489  33.1298347
  65.9189907   9.4971078  32.1957566  57.6474129   6.2309652  32.4390119
  58.4732149   5.9313423  32.0588762  57.2968181   5.4617274  32.8879907
  62.6155662   5.5836120  34.5087792  61.9935672   4.9206825  34.2090020
  63.2860529   5.6097252  33.8261440  55.8482734   4.1495978  33.3979052
  55.0114642   3.7218152  33.2163053  55.8206380   4.3428421  34.3349843
  73.1735035   4.6059031  43.3821435  72.3830579   4.5883170  42.8425935
  72.9368390   5.1447325  44.1370472  62.1769169   4.1340043  27.9846253
  62.3257290   4.8175508  27.3312926  62.9835613   4.1145133  28.4995709
  74.7951107   3.8748439  40.9396185  74.5035916   4.2378420  41.7759646
  74.1823239   3.1615447  40.7609517  59.9321802   0.1605221  28.9907322
  59.6867844  -0.7432449  29.1887532  60.1017717   0.1622371  28.0486800
  65.6764575   6.6288174  25.4558000  65.1038542   7.2478361  25.0028472
  66.2497368   7.1787535  25.9897922  68.8961834   6.9125324  26.5866582
  69.8292508   6.8470885  26.7899458  68.8085047   7.7481591  26.1281115
  71.5249851   6.2291194  23.5470530  71.4463483   5.8951058  24.4406288
  72.3459518   6.7212962  23.5462002  65.9450066   2.0166732  44.2574710
  66.8653075   2.1945331  44.4514756  65.9099649   1.0722778  44.1054409
  55.1632231  -2.7894674  33.1827984  54.8435015  -3.6429366  32.8902358
  54.6165659  -2.5746096  33.9385952  58.9412138  -0.0732233  36.8997491
  59.1598148   0.8584875  36.9185525  59.3537912  -0.4324258  37.6852295
  55.0320491   0.8308238  35.1521106  54.3383962   0.4162190  34.6391060
  55.7793482   0.8728774  34.5554525  63.6771274  -1.0701888  45.1065301
  63.1938355  -0.2701528  45.3129190  63.7632213  -1.0593943  44.1532745
  56.9457233   0.7626491  33.0287121  56.9227921   0.8614179  32.0769004
  57.2557870   1.6091642  33.3504287  59.6044611   2.8202646  37.1433735
  60.5587865   2.7886589  37.0763667  59.4057135   2.3593270  37.9583961
  60.1943993   1.3903762  39.7104533  61.0136882   1.8847841  39.7339370
  60.4680801   0.4735731  39.6822100  57.9594840   8.3622266  34.1603933
  57.8249308   7.6022667  33.5941931  57.5426902   9.0863166  33.6932722
  69.0953803   3.5459189  23.1680508  69.7989653   3.7509192  23.7838164
  68.3716452   4.1135951  23.4329592  61.1163966   9.2591583  34.3722376
  60.9996350  10.2037015  34.2701066  60.2956412   8.9565144  34.7608175
  71.0040500   3.9841719  25.2178968  71.8386104   3.5522917  25.0356443
  70.8424843   3.8123732  26.1455863  67.9732300   2.7922744  45.9088870
  68.8423459   2.9663396  45.5475505  67.4939051   3.6117161  45.7864600
  62.1418480   9.9119845  37.5878304  63.0445727   9.9443455  37.9044799
  61.9155850   8.9820296  37.6024640  63.8972082   8.6650831  34.2488383
  62.9467713   8.6652693  34.1352755  64.2004568   7.9183566  33.7324417
  79.6324775  14.5011370  35.3134145  80.2703185  14.3818117  34.6097485
  79.5145618  15.4492214  35.3722097  76.4414482  14.4538798  35.2495670
  76.1032993  14.3379863  34.3616205  77.3104250  14.0529963  35.2296676
  72.3001297  16.3074274  31.2392561  71.7366163  16.2164211  30.4708849
  72.1853692  15.4874179  31.7195053  76.9234265  15.6073650  41.2081875
  76.9122905  15.2126448  40.3362379  77.0854904  14.8739722  41.8015647
  69.8465729  17.8025466  34.0776781  70.6387021  17.4616291  33.6623081
  70.0862379  17.9120441  34.9978935  77.8800856  19.9745242  26.5507026
  77.2288836  20.5599322  26.1641039  78.6745219  20.5051437  26.6102063
  71.8056483  17.0634379  26.9494160  72.5787359  16.5163366  26.8107036
  72.1581882  17.9278628  27.1608621  73.6441526  18.3910761  40.1561059
  73.3531392  19.2956392  40.0407726  74.2798510  18.4327289  40.8705129
  74.5697733  15.7687610  36.7462419  75.1661305  15.5443632  36.0319382
  74.6272704  15.0272355  37.3487867  74.1422761  13.2227045  24.5812610
  74.3948282  12.7008567  23.8196073  73.2047320  13.0593191  24.6839294
  79.1866044  12.2262824  32.3887353  79.9729133  11.8082247  32.0377770
  79.4504748  13.1308916  32.5569002  79.3576121  17.6635674  27.0876010
  78.7221954  17.7370300  27.7996915  79.0273528  18.2529273  26.4095089
  84.5874471  12.1638057  33.2920332  85.3199643  11.5937274  33.5258161
  83.8313827  11.7759657  33.7326837  73.8619050  15.1255151  26.7836985
  73.7455308  14.4500055  27.4518069  73.9721310  14.6387525  25.9669138
  76.2050591  14.5865298  30.4883674  75.8408798  14.0595919  31.1996596
  77.0617707  14.1963767  30.3150160  82.1099891   5.8759631  37.7514940
  81.7783216   6.7455042  37.5276155  81.5145505   5.5595915  38.4308971
  75.8456078   9.6155198  25.4845023  76.0130480  10.4835434  25.8515494
  75.6553247   9.7782480  24.5606312  78.6031411  18.0772177  37.1510853
  78.3032134  18.9797216  37.0426660  78.2582470  17.8104360  38.0032006
  72.0543892  14.5285974  33.1847557  71.1294389  14.3962188  33.3925249
  72.3028306  15.3080193  33.6817500  82.0028555  10.5954717  34.8308290
  81.0945432  10.5270126  34.5367051  81.9516151  11.0726662  35.6590116
  75.8245299  12.0712856  26.4691690  75.7044924  12.5169906  27.3077170
  75.1297887  12.4198173  25.9105228  69.4152703  14.1719247  34.0191347
  69.5445085  14.4253726  34.9330758  68.7350155  14.7646955  33.6996002
  73.5852191  24.8416497  30.1181821  73.5076220  25.7924322  30.1970301
  72.9813834  24.4962370  30.7756747  76.0769420  12.0144363  42.7743188
  75.3002755  12.5738283  42.7646052  76.7159984  12.5001146  43.2958058
  83.8690201   8.7971156  36.6086164  83.2264581   9.0903689  35.9625959
  83.3645130   8.6824076  37.4139361  81.5230365  12.5434329  27.2972024
  82.4348221  12.7761715  27.1219721  81.0140012  13.1271373  26.7347102
  74.3315793  14.8229816  42.3361155  75.0730477  15.3614860  42.0595978
  73.6252778  15.4496105  42.4932706  79.8071132  16.9658957  40.9333316
  80.2154488  16.5241367  40.1887948  79.0848394  16.3911584  41.1867509
  76.1602202  11.9031563  38.3066873  77.0063398  12.3270977  38.4501522
  76.1000840  11.2465188  39.0005436  80.1299947  17.5260147  34.6885605
  79.5008810  17.6905861  33.9861673  79.7425609  17.9401757  35.4596569
  84.0089179  18.4614585  32.0429969  83.3240217  18.8413486  31.4927002
  84.0933028  19.0709912  32.7761917  79.3101648   9.5635932  39.9648047
  79.0662580  10.3177992  39.4282322  79.5861578   9.9421279  40.7995294
  81.2640111  16.1074544  38.6425312  81.4757006  16.7506304  37.9659693
  81.2169859  15.2736861  38.1747242  78.8666340   8.7192365  35.5461884
  78.0050819   9.0173618  35.8378622  78.8928774   8.9362764  34.6142917
  75.6827909  17.2634555  31.9535690  76.1466254  17.5422258  31.1640313
  75.4184707  16.3618000  31.7708781  72.5751990  16.8106037  34.8915453
  73.1453347  17.2393305  34.2532938  73.1660102  16.5288621  35.5899639
  74.6196795  13.3857708  28.7625255  75.3220838  13.8378751  29.2299182
  74.2877424  12.7441526  29.3905148  73.0677157  11.9769464  43.1376465
  72.4375817  12.6585745  43.3711861  72.9613244  11.8652546  42.1929603
  68.3622129  11.6441260  34.0642389  67.5721183  11.8998789  33.5882499
  68.8533376  12.4589598  34.1694429  82.3785939  18.9846499  36.8147670
  83.2003382  18.5826687  36.5330351  82.3748341  18.8814734  37.7663785
  70.3136874  12.0085840  31.0225866  69.5168038  12.1204534  31.5409361
  70.0862467  12.3472492  30.1566756  76.1442542  18.5330543  38.9708380
  76.2086974  18.9950950  39.8066552  75.4353466  17.9027908  39.0990690
  66.6459832  11.8971751  36.4957380  66.8967870  12.7818761  36.7614956
  67.1819380  11.7176352  35.7232471  90.4691932  15.3285248  33.1632641
  89.7155640  14.7592646  33.0076646  90.6039473  15.2947912  34.1103276
  75.8590560  20.1998650  28.8387360  75.7236234  21.0450186  29.2672208
  76.4000372  20.4017928  28.0753294  72.3457899   6.2790230  45.5001716
  71.9524845   5.7256429  46.1749360  73.1624040   6.5900809  45.8908233
  69.3119957  17.7174088  29.4115286  69.8244478  18.5117339  29.5620850
  69.9642670  17.0200379  29.3448887  71.1214842  20.8339845  31.4938039
  71.2981470  21.7557809  31.3059023  71.9171675  20.5198264  31.9232419
  75.2625860   7.6948109  43.0921972  76.0035574   8.2955262  43.0126435
  75.4943783   6.9525747  42.5340015  70.4067198  12.8804476  41.3700202
  70.2920713  11.9789734  41.6707301  69.5511716  13.1268173  41.0185018
  77.4859036  20.8222217  42.9687703  77.0422890  20.0358595  42.6508607
  78.1476250  21.0101367  42.3031593  72.2446157  22.3518018  37.4948381
  72.7953582  22.2235082  36.7225375  71.4057633  22.6512907  37.1443274
  79.5840274  21.1025017  40.9969104  79.5658749  21.9233898  40.5049373
  80.5060194  20.9779092  41.2219245  76.0413328  18.6169146  41.8392612
  76.5741665  17.8557434  41.6091920  75.5127409  18.3242798  42.5816767
  67.2768874  16.0462743  30.1874856  68.1144096  16.4559751  29.9708564
  67.4547142  15.1062185  30.1575050  79.1733306  13.7137823  25.8758689
  78.6579929  14.4842428  26.1147076  78.9010614  13.0402959  26.4991750
  76.7580417   8.5587524  30.9343927  75.9022013   8.1694374  30.7549566
  77.1707369   8.6379485  30.0743713  78.2879564   6.0933867  35.3335487
  77.7844359   6.0564002  34.5203292  78.5810170   7.0026610  35.3932144
  74.5322449   6.1772597  34.3401669  75.3975446   5.9815406  33.9807558
  74.5999958   5.9482949  35.2671026  84.1467580  16.4670178  27.8111863
  83.3697023  16.1281337  27.3667025  84.8259061  16.4722801  27.1366828
  78.9619609  11.5864915  27.7018470  78.6569745  11.9011064  28.5528613
  79.9150051  11.6646335  27.7445803  77.4066041  17.7455139  29.3511424
  76.8787403  17.0107898  29.0384662  76.9053544  18.5229815  29.1051393
  82.3858887  15.9404159  34.4678471  81.7282561  16.6303421  34.5558599
  83.1899286  16.3300591  34.8112457  72.1384769   8.4074805  31.7118036
  72.7128520   8.1849986  30.9791229  72.7255751   8.4763499  32.4646637
  81.1964346  14.2948532  32.5182412  81.7096228  14.9278524  33.0204122
  81.8465570  13.6949727  32.1525772  72.4654356  10.4379266  25.7313921
  71.6291668  10.7753952  26.0523196  72.3259125  10.3028246  24.7941058
  74.4407436   5.2816054  30.4393105  73.7871849   4.9665071  29.8149720
  74.3987910   4.6591794  31.1652928  75.5518641  15.5635349  22.3546397
  74.6445703  15.3324602  22.5537546  76.0489673  14.7672968  22.5420379
  78.4586720  24.2732856  25.2743083  77.7848419  24.5764553  25.8828041
  78.8452542  25.0761936  24.9248540  77.6745177  11.7697987  34.7640753
  76.7567738  11.9912934  34.6062441  78.0905320  11.8444298  33.9052460
  78.4580224  13.1689403  29.8943433  79.2052043  13.6810800  29.5850555
  78.7271814  12.8473456  30.7547827  76.7306875  15.6647944  26.8770387
  75.8218094  15.3806977  26.9742857  76.7601958  16.0847022  26.0173694
  81.9626142  19.2754533  30.6461555  81.5088469  18.4345443  30.7026745
  81.3320109  19.9115932  30.9836335  80.9059062  10.2046519  31.8762222
  80.1681818   9.6923905  32.2072465  81.1585835   9.7646901  31.0645499
  80.4059081  21.1131030  31.5811373  80.6982056  21.6736087  30.8623739
  80.9157702  21.4059591  32.3364532  67.2995045  13.3853458  30.8585590
  67.1019445  12.7922819  30.1336656  66.7441709  13.0805668  31.5761528
  75.2791769  13.2776564  32.9780183  75.3340378  12.3250401  32.9022659
  74.4682971  13.4336003  33.4621481  76.4282962  17.2056687  24.2158466
  75.9902392  16.4892546  23.7564103  77.1693403  17.4332802  23.6543557
  73.2184129  11.8953624  30.7370562  72.4051994  12.1947795  31.1435754
  73.7143123  11.5009313  31.4545044  75.3692706  21.8911381  32.6704826
  75.3268885  22.1172227  31.7413358  76.2855405  21.6574756  32.8190627
  78.8158340  12.3595449  39.5685455  79.1707728  12.5866922  40.4279921
  79.4630471  12.6913825  38.9462711  84.5456077  15.4813884  30.2734784
  84.4073976  15.6715480  29.3455974  84.1892296  16.2433267  30.7302836
  72.7098203   9.4671980  36.3531797  73.3497583   9.3260739  35.6554760
  71.8775734   9.1806493  35.9770398  84.5725457  17.5490411  35.2846056
  85.0061963  17.4565701  36.1329110  85.2857037  17.5247912  34.6466072
  73.4858507  18.7674410  32.4666789  74.2799106  18.2724730  32.2649364
  72.7750200  18.2392273  32.1034495  78.3053352  21.1492506  36.8179157
  78.3590374  21.7183442  37.5856872  77.4368133  21.3194391  36.4533194
  69.7941271  12.9117492  28.5426542  68.8638859  12.8501947  28.7596504
  69.8898743  12.3893445  27.7463183  69.7126820   9.4372305  31.1304783
  69.9733637  10.3517638  31.0213944  70.5343992   8.9696747  31.2801396
  71.1851745  10.8510062  38.3003608  71.8574798  10.6427424  37.6516257
  70.3581532  10.6532148  37.8608840  85.4341006  17.5914112  37.8178941
  85.6276896  18.4959923  38.0638216  85.3341624  17.1321531  38.6517526
  77.0877317   7.4772003  40.3169269  76.4405232   8.1761952  40.2233745
  77.8578332   7.9108147  40.6845517  80.4956115  17.7420855  43.3919822
  80.3441621  17.5131407  42.4749906  80.4860794  18.6991456  43.4051167
  77.2641451  15.3152768  38.3766088  78.1933511  15.4663927  38.2035056
  76.8432481  15.4036788  37.5214735  76.0629783  19.3403432  36.1464626
  75.9240869  18.9722216  37.0190564  75.2744379  19.8551071  35.9748584
  76.6577935  24.4412529  27.4890163  76.8329691  23.9700572  28.3035785
  75.9710723  25.0678295  27.7171423  77.6134998  18.7185035  33.5353464
  77.2784831  18.6785805  34.4311114  77.1138944  18.0529751  33.0623874
  71.5879242  14.1252665  39.0606045  71.4499040  13.3932904  39.6617584
  72.4984166  14.0361565  38.7790233  80.5494190  16.0641069  23.8090523
  79.9323361  15.3387897  23.7123576  80.0810678  16.8250429  23.4657598
  74.2161543  13.8372624  38.5489725  74.9261161  13.1965816  38.5076343
  74.1730851  14.0885519  39.4715905  82.2048322  20.7739977  41.4696304
  82.1460868  20.0899198  40.8026887  82.6067840  21.5158967  41.0176930
  72.9290477  10.8237842  40.3685364  72.3927834  10.3728580  41.0206960
  72.3407185  10.9583751  39.6255828  71.2239020  27.5901891  34.2630023
  71.4635619  28.2220415  34.9409041  70.3808217  27.2389931  34.5495382
  72.3392736  10.2826493  22.9311828  71.4622202  10.1615294  22.5674074
  72.8150489   9.4912572  22.6790716  82.2065729  18.7379561  39.7010284
  81.3192508  18.4005483  39.8236682  82.7764280  18.0062593  39.9379049
  63.8594876  15.0703653  33.0253335  64.5465916  14.7565383  32.4374350
  63.7043005  15.9745018  32.7520586  68.6629598   9.9593850  37.4538359
  68.5787787   9.3519519  36.7188769  67.8412305  10.4502868  37.4547855
  75.7366882  23.3981014  36.6671527  75.6637054  24.2035985  37.1790831
  75.2944275  23.5972980  35.8419548  75.5256662  22.6352784  30.1774348
  74.7424184  23.1774464  30.2712573  76.2249407  23.1526763  30.5768589
  78.8353312   8.4447413  32.8208554  79.3322012   7.6917376  32.5009624
  78.0640294   8.4811730  32.2551763  86.6883069  14.1487779  34.4626845
  86.6772946  15.0312494  34.0920778  85.8200449  13.7959330  34.2681382
  78.1965566  23.2967848  38.8229685  78.9093538  23.9315313  38.7505587
  77.7055594  23.3931714  38.0069687  79.9183093  17.2019100  30.3946977
  78.9839371  17.3220563  30.2251681  80.0959761  16.2991567  30.1306987
  75.4188281  10.5864796  32.5480238  75.0486068  10.0335837  33.2361144
  75.9147373   9.9822930  31.9955238  83.3055644  13.0436420  30.9297011
  83.7716096  13.8764411  30.8557314  83.7563145  12.5781401  31.6342270
  73.2477479  21.0462291  39.6435256  73.9486939  21.6798774  39.7964650
  72.7772594  21.3877023  38.8830895  81.3731875  19.3880241  27.9283163
  81.6491719  19.2736836  28.8377037  80.5036374  18.9897726  27.8895336
  81.2772307   5.4117007  34.9687913  80.3635387   5.6421234  35.1370119
  81.7065408   5.4955451  35.8201945  81.0478765  13.6006899  37.4687807
  80.3950216  13.8482806  36.8140259  81.4259145  12.7871037  37.1350284
  78.0085939  23.6366592  31.5715977  78.1908334  22.8188248  32.0343729
  78.8318925  23.8534284  31.1340867  78.3428105  22.5634777  28.8331025
  78.8715871  22.0527232  28.2201187  78.6056324  22.2477307  29.6976558
  77.0966338  14.3426710  43.9553844  76.4206975  14.2420839  44.6256219
  77.9193972  14.1865923  44.4189841  68.8445197  20.5798646  36.5766359
  69.4298634  19.8342334  36.7094263  68.6470036  20.8902603  37.4603023
  71.6983853  23.6149894  31.5928801  71.0294228  24.0996021  31.1092841
  71.5596722  23.8619114  32.5072180  63.4362852  13.1504246  35.2970802
  63.4746952  12.6167837  36.0907920  62.9303145  12.6239452  34.6781779
  75.8389121  25.6493637  38.1911460  76.3907429  25.8125259  38.9560545
  76.1795315  26.2398075  37.5191484  70.8153614   7.9968787  38.7933344
  70.8794941   8.8583618  38.3810742  70.7520735   7.3842789  38.0605703
  70.2905887  10.0691920  42.4406379  70.9177926   9.6868997  43.0543903
  69.4333806   9.8506121  42.8062071  80.6899996  20.4754895  44.0460114
  81.2339900  21.0884853  43.5515069  80.1086840  21.0334473  44.5627127
  67.0671430  11.8768349  28.3724733  67.3624871  10.9679027  28.3191787
  66.1659465  11.8556088  28.0505736  78.9757508  23.5975613  35.1775142
  78.8508648  22.7965353  34.6686087  79.6336600  24.0921806  34.6889112
  70.5965677   9.9524345  34.3552282  69.8752262  10.5660313  34.2159755
  71.3858932  10.4882110  34.2768928  81.0392417  21.3984633  36.8054692
  80.0922752  21.2789984  36.7333019  81.3875190  20.5107131  36.8880953
  73.3991990   7.2878772  40.6292934  73.9226392   7.5341068  41.3919243
  73.1804324   8.1198807  40.2096071  68.7959271   9.5582446  28.4964059
  68.4671977   8.6779825  28.3139165  69.1498642   9.5030115  29.3840448
  78.0438850  21.1937349  33.0059044  77.8963813  20.2654056  33.1866614
  78.8692344  21.2157440  32.5216119  71.9101094   9.8455416  28.8639536
  72.2497167  10.3741337  28.1418145  72.3573215  10.1835822  29.6398103
  81.6472972  22.0165908  34.0923917  82.5719520  21.8108769  33.9548368
  81.4788275  21.7682309  35.0013258  74.6044535   8.2292467  38.3142604
  74.2641356   7.4300280  38.7163284  73.8983542   8.5294178  37.7419438
  75.2561007   5.3141779  36.7669927  76.0787076   4.8402257  36.6448818
  75.4999071   6.0932263  37.2668614  73.8969242   8.3430038  27.0632829
  74.6177604   8.7211290  26.5596546  73.2734546   9.0618914  27.1667807
  78.0400364   9.0475187  27.9991161  78.2563979   9.9299825  27.6979990
  77.5594432   8.6561400  27.2696803  72.7799586  12.0060900  34.5761906
  72.6344167  12.3201203  35.4686187  72.3024790  12.6245800  34.0232805
  74.6395969   8.9963448  34.6242796  74.6257538   8.1004541  34.2875093
  75.3568397   9.0034112  35.2581082  76.4922099   9.4300788  36.6695923
  76.2339877  10.3517859  36.6680253  75.9607140   9.0331223  37.3596387
  81.4368288  22.5351575  29.4486008  81.6105166  21.9697998  28.6959861
  81.9297179  23.3352470  29.2665498  67.2545248  14.5466244  37.5149567
  66.7098716  15.3226052  37.6469841  68.1324598  14.8937049  37.3568689
  74.0432865   7.8777828  29.8930366  74.1648776   6.9494474  30.0921253
  73.7534907   7.8916514  28.9808681  76.9124055   5.5632739  33.0297085
  76.9345752   5.6272072  32.0749065  77.3292114   4.7237247  33.2237592
  87.2907679  15.2987998  31.0676308  87.7338825  14.5495323  30.6695431
  86.4134190  15.2898134  30.6850040  82.4243461  21.8518340  26.5482907
  83.1194365  22.4725032  26.7670221  82.7666611  21.0013691  26.8235284
  68.0411270  13.6736141  40.4079724  67.2993006  13.8218776  40.9944354
  67.7204014  13.9344406  39.5446473  84.3234884  19.3018045  28.0770237
  84.8486208  19.6405318  27.3519557  84.2357236  18.3665060  27.8933372
  75.9854933  23.2152119  40.2060114  76.2942059  22.9701266  41.0782814
  76.7830415  23.4198757  39.7178984  76.0075545  25.3690028  32.4365491
  75.5680535  24.8766407  33.1298347  76.7583662  24.8262996  32.1957566
  68.4867884  21.5601569  32.4390119  69.3125903  21.2605341  32.0588762
  68.1361936  20.7909192  32.8879907  73.4549417  20.9128037  34.5087792
  72.8329426  20.2498742  34.2090020  74.1254284  20.9389169  33.8261440
  66.6876489  19.4787896  33.3979052  65.8508397  19.0510070  33.2163053
  66.6600134  19.6720339  34.3349843  73.5273944   9.3909825  44.1020298
  73.5762100  10.2671948  43.7198068  74.0696458   8.8487219  43.5291941
  84.0128790  19.9350949  43.3821435  83.2224334  19.9175088  42.8425935
  83.7762144  20.4739242  44.1370472  84.1326665  16.7843415  40.6954164
  84.1824670  16.6193423  41.6369687  84.0240588  15.9170674  40.3052045
  73.0162924  19.4631961  27.9846253  73.1651044  20.1467425  27.3312926
  73.8229367  19.4437051  28.4995709  81.4230427  12.7674343  42.0113471
  82.3240290  12.6280808  41.7197468  81.4978402  12.9328798  42.9511648
  75.7573233  10.1441198  40.8566657  74.8876542  10.4374764  40.5849245
  75.9932713  10.7281643  41.5773921  85.6344862  19.2040357  40.9396185
  85.3429670  19.5670337  41.7759646  85.0216993  18.4907365  40.7609517
  86.8340544  16.7693236  33.4598756  87.6687435  17.2083040  33.6236316
  86.9699673  16.2931890  32.6407001  83.8832050  14.3272971  39.4076243
  84.3586172  14.5200618  38.5995095  82.9597615  14.3832157  39.1619627
  70.7715557  15.4897138  28.9907322  70.5261599  14.5859468  29.1887532
  70.9411471  15.4914289  28.0486800  78.4612267   6.3620815  38.3732077
  78.9794210   7.0981842  38.0478566  78.1067399   6.6684808  39.2078836
  70.0411204  11.2225496  26.4893483  69.3480449  11.2969851  25.8333519
  69.7962956  10.4585840  27.0115000  76.5158329  21.9580091  25.4558000
  75.9432296  22.5770278  25.0028472  77.0891123  22.5079453  25.9897922
  82.5833719  11.2038731  37.6404549  83.5351142  11.3036829  37.6616773
  82.4137169  10.4117000  38.1502633  80.6048098   8.2894315  37.8263950
  80.0098031   8.5699327  37.1310439  80.3197795   8.7788215  38.5980691
  79.7355589  22.2417241  26.5866582  80.6686262  22.1762803  26.7899458
  79.6478802  23.0773508  26.1281115  82.3643606  21.5583112  23.5470530
  82.2857237  21.2242975  24.4406288  83.1853272  22.0504880  23.5462002
  85.0621797  14.4244851  36.7546849  85.0298117  13.4860852  36.9406532
  85.6722420  14.5028888  36.0212674  76.9005128  13.2940904  22.7974053
  77.8464232  13.1647112  22.8662471  76.5219373  12.5555566  23.2743481
  85.2116285  11.2155894  36.8005132  84.6955334  10.4314351  36.6135061
  86.0956234  10.8874611  36.9651651  90.8798347  15.4860858  35.8952885
  91.6101735  15.2246146  36.4560589  90.2705292  14.7489580  35.9354953
  88.9613644  13.6268720  36.4927337  88.2346807  13.4924685  35.8843828
  88.5460931  13.9345549  37.2984055  76.7843820  17.3458650  44.2574710
  77.7046830  17.5237249  44.4514756  76.7493403  16.4014696  44.1054409
  75.0848045  11.2190880  22.7328938  74.1779500  10.9223993  22.8091652
  75.3624026  10.9220698  21.8663224  66.0025985  12.5397244  33.1827984
  65.6828770  11.6862552  32.8902358  65.4559413  12.7545822  33.9385952
  69.7805893  15.2559685  36.8997491  69.9991903  16.1876793  36.9185525
  70.1931667  14.8967659  37.6852295  76.7010111   5.7627770  28.8873179
  75.8910839   5.4174855  29.2628425  77.3894527   5.4535314  29.4760791
  78.6300659   4.8405817  30.5097476  79.1831697   5.2601270  31.1687499
  78.8670745   3.9141565  30.5520432  74.6533758  10.8292891  46.2900240
  74.5530485  11.7787248  46.2212331  74.4355300  10.5011129  45.4176310
  73.8546829   8.0777816  22.8740917  74.7165993   8.4032714  23.1336734
  74.0397174   7.2909312  22.3613983  65.8714245  16.1600155  35.1521106
  65.1777717  15.7454108  34.6391060  66.6187236  16.2020692  34.5554525
  82.0079466   6.9506342  30.0176140  81.4278135   7.6091146  29.6354193
  81.7415399   6.1283687  29.6063558  80.4583032   6.3511400  32.2197460
  80.9582811   6.4627934  31.4111779  81.1018640   6.0472453  32.8598269
  74.5165028  14.2590029  45.1065301  74.0332110  15.0590390  45.3129190
  74.6025967  14.2697974  44.1532745  67.7850988  16.0918409  33.0287121
  67.7621676  16.1906096  32.0769004  68.0951624  16.9383560  33.3504287
  70.4438366  18.1494564  37.1433735  71.3981619  18.1178506  37.0763667
  70.2450889  17.6885188  37.9583961  71.0337748  16.7195680  39.7104533
  71.8530637  17.2139759  39.7339370  71.3074555  15.8027648  39.6822100
  80.7904344   9.1106432  29.0732488  79.9030199   9.3956083  28.8552683
  81.2058333   8.9500196  28.2259765  84.1418880   9.1352953  32.7886828
  84.9179270   9.6249406  33.0611444  83.4167014   9.5611008  33.2458697
  86.5791439   9.8480573  33.8460768  87.1735930   9.6076309  33.1354076
  86.6518022   9.1287703  34.4734305  68.7988594  23.6914184  34.1603933
  68.6643062  22.9314584  33.5941931  68.3820657  24.4155083  33.6932722
  79.9347557  18.8751107  23.1680508  80.6383408  19.0801110  23.7838164
  79.2110206  19.4427869  23.4329592  80.7645368  14.6260968  29.2882779
  80.7080569  15.0829520  28.4490411  81.3173710  13.8651653  29.1105621
  84.5750174  10.4150700  30.1132898  84.3187108  10.0147336  30.9441106
  83.9503042  11.1294494  29.9883037  88.8862511  13.1546774  32.6204189
  88.3262069  13.2239963  33.3935751  88.2806015  12.9787758  31.9003686
  71.9557720  24.5883501  34.3722376  71.8390104  25.5328933  34.2701066
  71.1350167  24.2857062  34.7608175  81.8434255  19.3133636  25.2178968
  82.6779859  18.8814835  25.0356443  81.6818598  19.1415650  26.1455863
  81.4980147  15.8165750  26.5835308  81.4428951  15.6510021  25.6423752
  80.8726202  16.5241783  26.7397497  66.2872662  11.0533814  40.4096730
  66.9331526  10.5432768  40.8983955  66.0789813  11.7902496  40.9840155
  78.8126054  18.1214662  45.9088870  79.6817214  18.2955314  45.5475505
  78.3332806  18.9409078  45.7864600  74.8076272   5.3173859  26.1620626
  74.7954942   6.2615699  26.3188897  75.6999694   5.1344004  25.8680087
  72.9812234  25.2411763  37.5878304  73.8839481  25.2735373  37.9044799
  72.7549604  24.3112213  37.6024640  74.7365836  23.9942749  34.2488383
  73.7861467  23.9944611  34.1352755  75.0398323  23.2475484  33.7324417
  70.6270153   8.2001431  44.5071744  71.4901615   7.8438236  44.7175069
  70.0535564   7.8615326  45.1947148  90.4718530  29.8303287  35.3134145
  91.1096940  29.7110035  34.6097485  90.3539373  30.7784131  35.3722097
  87.2808236  29.7830716  35.2495670  86.9426748  29.6671780  34.3616205
  88.1498004  29.3821881  35.2296676  83.1395052  31.6366192  31.2392561
  82.5759917  31.5456129  30.4708849  83.0247447  30.8166096  31.7195053
  87.7628019  30.9365567  41.2081875  87.7516660  30.5418366  40.3362379
  87.9248659  30.2031640  41.8015647  80.6859484  33.1317384  34.0776781
  81.4780776  32.7908208  33.6623081  80.9256134  33.2412359  34.9978935
  88.7194611  35.3037160  26.5507026  88.0682590  35.8891240  26.1641039
  89.5138973  35.8343355  26.6102063  82.6450238  32.3926297  26.9494160
  83.4181114  31.8455284  26.8107036  82.9975637  33.2570546  27.1608621
  84.4835280  33.7202679  40.1561059  84.1925146  34.6248310  40.0407726
  85.1192265  33.7619207  40.8705129  85.4091487  31.0979528  36.7462419
  86.0055059  30.8735550  36.0319382  85.4666459  30.3564273  37.3487867
  84.9816516  28.5518963  24.5812610  85.2342036  28.0300484  23.8196073
  84.0441075  28.3885108  24.6839294  90.0259798  27.5554741  32.3887353
  90.8122888  27.1374164  32.0377770  90.2898503  28.4600833  32.5569002
  90.1969876  32.9927592  27.0876010  89.5615709  33.0662218  27.7996915
  89.8667282  33.5821190  26.4095089  95.4268226  27.4929975  33.2920332
  96.1593397  26.9229191  33.5258161  94.6707581  27.1051575  33.7326837
  84.7012804  30.4547069  26.7836985  84.5849062  29.7791972  27.4518069
  84.8115064  29.9679443  25.9669138  87.0444345  29.9157216  30.4883674
  86.6802552  29.3887837  31.1996596  87.9011461  29.5255685  30.3150160
  92.9493646  21.2051549  37.7514940  92.6176971  22.0746960  37.5276155
  92.3539259  20.8887833  38.4308971  86.6849832  24.9447116  25.4845023
  86.8524235  25.8127352  25.8515494  86.4947001  25.1074397  24.5606312
  89.4425165  33.4064095  37.1510853  89.1425889  34.3089133  37.0426660
  89.0976225  33.1396278  38.0032006  82.8937647  29.8577891  33.1847557
  81.9688143  29.7254106  33.3925249  83.1422060  30.6372111  33.6817500
  92.8422309  25.9246635  34.8308290  91.9339187  25.8562043  34.5367051
  92.7909905  26.4018580  35.6590116  86.6639053  27.4004773  26.4691690
  86.5438678  27.8461824  27.3077170  85.9691641  27.7490091  25.9105228
  80.2546458  29.5011165  34.0191347  80.3838839  29.7545644  34.9330758
  79.5743909  30.0938873  33.6996002  84.4245945  40.1708415  30.1181821
  84.3469975  41.1216240  30.1970301  83.8207589  39.8254287  30.7756747
  86.9163175  27.3436280  42.7743188  86.1396509  27.9030201  42.7646052
  87.5553738  27.8293063  43.2958058  94.7083956  24.1263073  36.6086164
  94.0658336  24.4195606  35.9625959  94.2038884  24.0115994  37.4139361
  92.3624119  27.8726246  27.2972024  93.2741975  28.1053633  27.1219721
  91.8533766  28.4563291  26.7347102  85.1709547  30.1521734  42.3361155
  85.9124232  30.6906778  42.0595978  84.4646533  30.7788022  42.4932706
  90.6464887  32.2950874  40.9333316  91.0548243  31.8533285  40.1887948
  89.9242148  31.7203502  41.1867509  86.9995957  27.2323481  38.3066873
  87.8457152  27.6562895  38.4501522  86.9394595  26.5757105  39.0005436
  90.9693702  32.8552065  34.6885605  90.3402564  33.0197779  33.9861673
  90.5819364  33.2693674  35.4596569  94.8482933  33.7906503  32.0429969
  94.1633972  34.1705404  31.4927002  94.9326783  34.4001829  32.7761917
  90.1495402  24.8927849  39.9648047  89.9056334  25.6469910  39.4282322
  90.4255333  25.2713197  40.7995294  92.1033865  31.4366462  38.6425312
  92.3150760  32.0798222  37.9659693  92.0563613  30.6028778  38.1747242
  89.7060094  24.0484282  35.5461884  88.8444573  24.3465536  35.8378622
  89.7322529  24.2654681  34.6142917  86.5221663  32.5926473  31.9535690
  86.9860009  32.8714176  31.1640313  86.2578462  31.6909917  31.7708781
  83.4145745  32.1397954  34.8915453  83.9847102  32.5685223  34.2532938
  84.0053856  31.8580539  35.5899639  85.4590550  28.7149625  28.7625255
  86.1614593  29.1670669  29.2299182  85.1271178  28.0733444  29.3905148
  83.9070911  27.3061382  43.1376465  83.2769572  27.9877663  43.3711861
  83.8006999  27.1944464  42.1929603  79.2015883  26.9733178  34.0642389
  78.4114937  27.2290706  33.5882499  79.6927131  27.7881516  34.1694429
  93.2179693  34.3138417  36.8147670  94.0397137  33.9118604  36.5330351
  93.2142096  34.2106651  37.7663785  81.1530629  27.3377757  31.0225866
  80.3561792  27.4496451  31.5409361  80.9256221  27.6764409  30.1566756
  86.9836296  33.8622460  38.9708380  87.0480729  34.3242868  39.8066552
  86.2747220  33.2319825  39.0990690  77.4853586  27.2263668  36.4957380
  77.7361625  28.1110678  36.7614956  78.0213135  27.0468270  35.7232471
 101.3085686  30.6577166  33.1632641 100.5549394  30.0884564  33.0076646
 101.4433227  30.6239830  34.1103276  86.6984314  35.5290568  28.8387360
  86.5629989  36.3742104  29.2672208  87.2394127  35.7309846  28.0753294
  83.1851654  21.6082148  45.5001716  82.7918599  21.0548346  46.1749360
  84.0017794  21.9192726  45.8908233  80.1513712  33.0466006  29.4115286
  80.6638232  33.8409256  29.5620850  80.8036424  32.3492296  29.3448887
  81.9608596  36.1631762  31.4938039  82.1375225  37.0849727  31.3059023
  82.7565430  35.8490181  31.9232419  86.1019615  23.0240027  43.0921972
  86.8429328  23.6247180  43.0126435  86.3337538  22.2817665  42.5340015
  81.2460953  28.2096394  41.3700202  81.1314468  27.3081651  41.6707301
  80.3905471  28.4560091  41.0185018  88.3252791  36.1514134  42.9687703
  87.8816645  35.3650513  42.6508607  88.9870004  36.3393285  42.3031593
  83.0839912  37.6809936  37.4948381  83.6347337  37.5526999  36.7225375
  82.2451388  37.9804825  37.1443274  90.4234029  36.4316934  40.9969104
  90.4052504  37.2525815  40.5049373  91.3453949  36.3071010  41.2219245
  86.8807083  33.9461064  41.8392612  87.4135420  33.1849352  41.6091920
  86.3521164  33.6534716  42.5816767  90.0476778  19.0521130  37.3686254
  89.7041047  19.9422771  37.2925365  90.4155740  18.8622787  36.5055839
  78.1162628  31.3754660  30.1874856  78.9537850  31.7851669  29.9708564
  78.2940896  30.4354102  30.1575050  90.0127060  29.0429741  25.8758689
  89.4973684  29.8134346  26.1147076  89.7404369  28.3694877  26.4991750
  87.5974171  23.8879442  30.9343927  86.7415768  23.4986292  30.7549566
  88.0101123  23.9671402  30.0743713  89.1273318  21.4225785  35.3335487
  88.6238114  21.3855920  34.5203292  89.4203925  22.3318528  35.3932144
  85.3716204  21.5064515  34.3401669  86.2369201  21.3107323  33.9807558
  85.4393713  21.2774866  35.2671026  94.9861335  31.7962096  27.8111863
  94.2090777  31.4573255  27.3667025  95.6652816  31.8014719  27.1366828
  89.8013364  26.9156833  27.7018470  89.4963499  27.2302982  28.5528613
  90.7543806  26.9938253  27.7445803  88.2459795  33.0747056  29.3511424
  87.7181157  32.3399816  29.0384662  87.7447298  33.8521733  29.1051393
  93.2252641  31.2696077  34.4678471  92.5676316  31.9595338  34.5558599
  94.0293041  31.6592509  34.8112457  82.9778523  23.7366723  31.7118036
  83.5522275  23.5141904  30.9791229  83.5649505  23.8055417  32.4646637
  92.0358100  29.6240449  32.5182412  92.5489982  30.2570441  33.0204122
  92.6859324  29.0241645  32.1525772  83.3048110  25.7671184  25.7313921
  82.4685422  26.1045870  26.0523196  83.1652880  25.6320163  24.7941058
  85.2801191  20.6107971  30.4393105  84.6265603  20.2956989  29.8149720
  85.2381665  19.9883712  31.1652928  86.3912396  30.8927267  22.3546397
  85.4839457  30.6616520  22.5537546  86.8883428  30.0964886  22.5420379
  89.2980475  39.6024774  25.2743083  88.6242173  39.9056471  25.8828041
  89.6846296  40.4053854  24.9248540  88.5138931  27.0989905  34.7640753
  87.5961492  27.3204852  34.6062441  88.9299075  27.1736216  33.9052460
  89.2973979  28.4981321  29.8943433  90.0445798  29.0102718  29.5850555
  89.5665568  28.1765373  30.7547827  87.5700629  30.9939861  26.8770387
  86.6611848  30.7098894  26.9742857  87.5995713  31.4138940  26.0173694
  92.8019896  34.6046451  30.6461555  92.3482224  33.7637361  30.7026745
  92.1713863  35.2407849  30.9836335  91.7452816  25.5338437  31.8762222
  91.0075573  25.0215823  32.2072465  91.9979590  25.0938819  31.0645499
  91.2452836  36.4422948  31.5811373  91.5375810  37.0028005  30.8623739
  91.7551456  36.7351509  32.3364532  91.8464443  18.3114689  32.4703992
  92.1523320  17.4512052  32.1829907  92.5717048  18.9032309  32.2702986
  78.1388799  28.7145376  30.8585590  77.9413199  28.1214736  30.1336656
  77.5835463  28.4097586  31.5761528  86.1185523  28.6068482  32.9780183
  86.1734133  27.6542318  32.9022659  85.3076725  28.7627921  33.4621481
  87.2676717  32.5348605  24.2158466  86.8296147  31.8184464  23.7564103
  88.0087158  32.7624720  23.6543557  84.0577883  27.2245542  30.7370562
  83.2445749  27.5239712  31.1435754  84.5536877  26.8301231  31.4545044
  86.2086461  37.2203299  32.6704826  86.1662640  37.4464145  31.7413358
  87.1249160  36.9866673  32.8190627  89.6552095  27.6887366  39.5685455
  90.0101482  27.9158839  40.4279921  90.3024226  28.0205743  38.9462711
  95.3849832  30.8105802  30.2734784  95.2467730  31.0007398  29.3455974
  95.0286050  31.5725185  30.7302836  83.5491958  24.7963897  36.3531797
  84.1891337  24.6552656  35.6554760  82.7169488  24.5098411  35.9770398
  95.4119211  32.8782329  35.2846056  95.8455718  32.7857618  36.1329110
  96.1250792  32.8539830  34.6466072  84.3252262  34.0966328  32.4666789
  85.1192860  33.6016648  32.2649364  83.6143954  33.5684191  32.1034495
  89.1447106  36.4784423  36.8179157  89.1984128  37.0475360  37.5856872
  88.2761888  36.6486308  36.4533194  80.6335025  28.2409409  28.5426542
  79.7032613  28.1793865  28.7596504  80.7292497  27.7185362  27.7463183
  80.5520574  24.7664222  31.1304783  80.8127391  25.6809556  31.0213944
  81.3737747  24.2988665  31.2801396  82.0245500  26.1801979  38.3003608
  82.6968553  25.9719342  37.6516257  81.1975286  25.9824065  37.8608840
  96.2734761  32.9206030  37.8178941  96.4670651  33.8251840  38.0638216
  96.1735379  32.4613449  38.6517526  87.9271072  22.8063920  40.3169269
  87.2798987  23.5053870  40.2233745  88.6972087  23.2400064  40.6845517
  91.3349869  33.0712773  43.3919822  91.1835376  32.8423324  42.4749906
  91.3254549  34.0283374  43.4051167  88.1035206  30.6444685  38.3766088
  89.0327266  30.7955845  38.2035056  87.6826236  30.7328706  37.5214735
  86.9023538  34.6695350  36.1464626  86.7634623  34.3014134  37.0190564
  86.1138134  35.1842989  35.9748584  87.4971690  39.7704446  27.4890163
  87.6723445  39.2992489  28.3035785  86.8104478  40.3970212  27.7171423
  88.4528753  34.0476952  33.5353464  88.1178585  34.0077722  34.4311114
  87.9532699  33.3821668  33.0623874  82.4272997  29.4544582  39.0606045
  82.2892795  28.7224821  39.6617584  83.3377920  29.3653483  38.7790233
  91.3887944  31.3932987  23.8090523  90.7717115  30.6679815  23.7123576
  90.9204433  32.1542347  23.4657598  85.0555297  29.1664542  38.5489725
  85.7654916  28.5257734  38.5076343  85.0124606  29.4177437  39.4715905
  93.0442076  36.1031895  41.4696304  92.9854622  35.4191115  40.8026887
  93.4461595  36.8450885  41.0176930  83.7684231  26.1529760  40.3685364
  83.2321588  25.7020498  41.0206960  83.1800940  26.2875668  39.6255828
  82.0632775  42.9193809  34.2630023  82.3029373  43.5512333  34.9409041
  81.2201971  42.5681849  34.5495382  83.1786490  25.6118411  22.9311828
  82.3015957  25.4907212  22.5674074  83.6544243  24.8204489  22.6790716
  93.0459483  34.0671479  39.7010284  92.1586262  33.7297401  39.8236682
  93.6158034  33.3354510  39.9379049  74.6988631  30.3995571  33.0253335
  75.3859670  30.0857301  32.4374350  74.5436759  31.3036935  32.7520586
  79.5023353  25.2885767  37.4538359  79.4181541  24.6811437  36.7188769
  78.6806059  25.7794786  37.4547855  86.5760637  38.7272931  36.6671527
  86.5030808  39.5327903  37.1790831  86.1338030  38.9264897  35.8419548
  86.3650416  37.9644701  30.1774348  85.5817938  38.5066382  30.2712573
  87.0643162  38.4818681  30.5768589  89.6747067  23.7739331  32.8208554
  90.1715766  23.0209293  32.5009624  88.9034048  23.8103648  32.2551763
  97.5276824  29.4779696  34.4626845  97.5166700  30.3604412  34.0920778
  96.6594203  29.1251247  34.2681382  89.0359320  38.6259765  38.8229685
  89.7487293  39.2607230  38.7505587  88.5449349  38.7223631  38.0069687
  90.7576847  32.5311018  30.3946977  89.8233126  32.6512481  30.2251681
  90.9353516  31.6283485  30.1306987  86.2582035  25.9156714  32.5480238
  85.8879823  25.3627754  33.2361144  86.7541128  25.3114847  31.9955238
  94.1449399  28.3728337  30.9297011  94.6109851  29.2056329  30.8557314
  94.5956899  27.9073319  31.6342270  84.0871234  36.3754209  39.6435256
  84.7880693  37.0090692  39.7964650  83.6166349  36.7168940  38.8830895
  92.2125630  34.7172159  27.9283163  92.4885474  34.6028753  28.8377037
  91.3430128  34.3189644  27.8895336  92.1166061  20.7408924  34.9687913
  91.2029141  20.9713151  35.1370119  92.5459163  20.8247368  35.8201945
  91.8872520  28.9298816  37.4687807  91.2343970  29.1774724  36.8140259
  92.2652900  28.1162955  37.1350284  88.8479694  38.9658510  31.5715977
  89.0302088  38.1480165  32.0343729  89.6712680  39.1826202  31.1340867
  89.1821859  37.8926695  28.8331025  89.7109626  37.3819149  28.2201187
  89.4450079  37.5769225  29.6976558  87.9360093  29.6718627  43.9553844
  87.2600730  29.5712757  44.6256219  88.7587727  29.5157841  44.4189841
  79.6838952  35.9090564  36.5766359  80.2692389  35.1634252  36.7094263
  79.4863790  36.2194521  37.4603023  82.5377607  38.9441811  31.5928801
  81.8687982  39.4287939  31.1092841  82.3990477  39.1911032  32.5072180
  74.2756607  28.4796164  35.2970802  74.3140706  27.9459755  36.0907920
  73.7696899  27.9531370  34.6781779  86.6782876  40.9785555  38.1911460
  87.2301184  41.1417176  38.9560545  87.0189069  41.5689993  37.5191484
  81.6547369  23.3260705  38.7933344  81.7188695  24.1875536  38.3810742
  81.5914489  22.7134706  38.0605703  81.1299641  25.3983837  42.4406379
  81.7571680  25.0160915  43.0543903  80.2727560  25.1798039  42.8062071
  91.5293750  35.8046812  44.0460114  92.0733654  36.4176771  43.5515069
  90.9480595  36.3626391  44.5627127  77.9065184  27.2060266  28.3724733
  78.2018625  26.2970945  28.3191787  77.0053220  27.1848006  28.0505736
  89.8151263  38.9267530  35.1775142  89.6902402  38.1257270  34.6686087
  90.4730354  39.4213724  34.6889112  81.4359431  25.2816263  34.3552282
  80.7146017  25.8952231  34.2159755  82.2252687  25.8174028  34.2768928
  91.8786171  36.7276550  36.8054692  90.9316507  36.6081902  36.7333019
  92.2268944  35.8399048  36.8880953  84.2385745  22.6170689  40.6292934
  84.7620147  22.8632986  41.3919243  84.0198078  23.4490724  40.2096071
  79.6353026  24.8874364  28.4964059  79.3065732  24.0071743  28.3139165
  79.9892397  24.8322033  29.3840448  88.8832605  36.5229267  33.0059044
  88.7357567  35.5945974  33.1866614  89.7086098  36.5449357  32.5216119
  82.7494849  25.1747334  28.8639536  83.0890921  25.7033255  28.1418145
  83.1966969  25.5127740  29.6398103  92.4866727  37.3457825  34.0923917
  93.4113274  37.1400687  33.9548368  92.3182030  37.0974227  35.0013258
  85.4438290  23.5584384  38.3142604  85.1035110  22.7592198  38.7163284
  84.7377296  23.8586095  37.7419438  86.0954762  20.6433697  36.7669927
  86.9180831  20.1694175  36.6448818  86.3392825  21.4224181  37.2668614
  84.7362996  23.6721955  27.0632829  85.4571359  24.0503208  26.5596546
  84.1128300  24.3910832  27.1667807  88.8794119  24.3767104  27.9991161
  89.0957733  25.2591742  27.6979990  88.3988186  23.9853318  27.2696803
  83.6193340  27.3352818  34.5761906  83.4737921  27.6493121  35.4686187
  83.1418544  27.9537718  34.0232805  85.4789723  24.3255366  34.6242796
  85.4651292  23.4296459  34.2875093  86.1962151  24.3326029  35.2581082
  87.3315854  24.7592706  36.6695923  87.0733632  25.6809776  36.6680253
  86.8000894  24.3623140  37.3596387  92.2762043  37.8643493  29.4486008
  92.4498920  37.2989915  28.6959861  92.7690934  38.6644388  29.2665498
  78.0939003  29.8758162  37.5149567  77.5492471  30.6517970  37.6469841
  78.9718352  30.2228966  37.3568689  84.8826619  23.2069746  29.8930366
  85.0042530  22.2786392  30.0921253  84.5928662  23.2208432  28.9808681
  87.7517810  20.8924656  33.0297085  87.7739506  20.9563989  32.0749065
  88.1685869  20.0529165  33.2237592  98.1301434  30.6279916  31.0676308
  98.5732580  29.8787241  30.6695431  97.2527944  30.6190052  30.6850040
  93.2637215  37.1810257  26.5482907  93.9588120  37.8016950  26.7670221
  93.6060365  36.3305608  26.8235284  78.8805024  29.0028058  40.4079724
  78.1386760  29.1510694  40.9944354  78.5597769  29.2636324  39.5446473
  95.1628638  34.6309963  28.0770237  95.6879962  34.9697236  27.3519557
  95.0750991  33.6956978  27.8933372  86.8248687  38.5444036  40.2060114
  87.1335813  38.2993183  41.0782814  87.6224169  38.7490675  39.7178984
  86.8469299  40.6981946  32.4365491  86.4074289  40.2058325  33.1298347
  87.5977416  40.1554914  32.1957566  79.3261638  36.8893487  32.4390119
  80.1519658  36.5897259  32.0588762  78.9755690  36.1201109  32.8879907
  84.2943171  36.2419955  34.5087792  83.6723181  35.5790660  34.2090020
  84.9648038  36.2681087  33.8261440  77.5270243  34.8079813  33.3979052
  76.6902151  34.3801988  33.2163053  77.4993889  35.0012257  34.3349843
  84.3667699  24.7201743  44.1020298  84.4155854  25.5963866  43.7198068
  84.9090213  24.1779136  43.5291941  94.8522544  35.2642866  43.3821435
  94.0618088  35.2467005  42.8425935  94.6155899  35.8031160  44.1370472
  94.9720419  32.1135333  40.6954164  95.0218424  31.9485340  41.6369687
  94.8634343  31.2462592  40.3052045  83.8556678  34.7923878  27.9846253
  84.0044799  35.4759343  27.3312926  84.6623122  34.7728969  28.4995709
  92.2624182  28.0966261  42.0113471  93.1634045  27.9572726  41.7197468
  92.3372156  28.2620716  42.9511648  86.5966987  25.4733116  40.8566657
  85.7270297  25.7666682  40.5849245  86.8326468  26.0573561  41.5773921
  96.4738616  34.5332274  40.9396185  96.1823425  34.8962255  41.7759646
  95.8610748  33.8199283  40.7609517  97.6734299  32.0985154  33.4598756
  98.5081190  32.5374958  33.6236316  97.8093427  31.6223807  32.6407001
  94.7225805  29.6564889  39.4076243  95.1979926  29.8492535  38.5995095
  93.7991370  29.7124075  39.1619627  81.6109311  30.8189056  28.9907322
  81.3655353  29.9151386  29.1887532  81.7805226  30.8206207  28.0486800
  89.3006021  21.6912733  38.3732077  89.8187965  22.4273759  38.0478566
  88.9461154  21.9976726  39.2078836  80.8804959  26.5517414  26.4893483
  80.1874204  26.6261769  25.8333519  80.6356711  25.7877757  27.0115000
  89.5518615  18.1113015  33.8932974  89.8320369  17.4436204  34.5193400
  90.3369222  18.3042111  33.3807638  87.3552084  37.2872009  25.4558000
  86.7826051  37.9062196  25.0028472  87.9284877  37.8371371  25.9897922
  93.4227474  26.5330649  37.6404549  94.3744896  26.6328747  37.6616773
  93.2530924  25.7408918  38.1502633  91.4441853  23.6186232  37.8263950
  90.8491785  23.8991245  37.1310439  91.1591550  24.1080133  38.5980691
  90.5749343  37.5709159  26.5866582  91.5080017  37.5054721  26.7899458
  90.4872556  38.4065426  26.1281115  93.2037360  36.8875029  23.5470530
  93.1250992  36.5534893  24.4406288  94.0247027  37.3796797  23.5462002
  95.9015551  29.7536769  36.7546849  95.8691871  28.8152769  36.9406532
  96.5116175  29.8320805  36.0212674  87.7398882  28.6232822  22.7974053
  88.6857987  28.4939030  22.8662471  87.3613127  27.8847484  23.2743481
  96.0510040  26.5447812  36.8005132  95.5349088  25.7606269  36.6135061
  96.9349988  26.2166529  36.9651651  93.7120767  20.2888828  32.7600945
  93.5145588  19.9803916  33.6444276  94.3220472  21.0150467  32.8898874
 101.7192101  30.8152776  35.8952885 102.4495490  30.5538064  36.4560589
 101.1099047  30.0781498  35.9354953  99.8007398  28.9560638  36.4927337
  99.0740562  28.8216603  35.8843828  99.3854685  29.2637467  37.2984055
  87.6237575  32.6750568  44.2574710  88.5440584  32.8529167  44.4514756
  87.5887158  31.7306613  44.1054409  85.9241799  26.5482798  22.7328938
  85.0173255  26.2515911  22.8091652  86.2017780  26.2512616  21.8663224
  76.8419740  27.8689161  33.1827984  76.5222524  27.0154470  32.8902358
  76.2953168  28.0837740  33.9385952  80.6199647  30.5851602  36.8997491
  80.8385657  31.5168710  36.9185525  81.0325421  30.2259577  37.6852295
  87.5403865  21.0919688  28.8873179  86.7304593  20.7466773  29.2628425
  88.2288282  20.7827232  29.4760791  89.4694413  20.1697735  30.5097476
  90.0225452  20.5893188  31.1687499  89.7064500  19.2433483  30.5520432
  85.4927513  26.1584808  46.2900240  85.3924239  27.1079165  46.2212331
  85.2749055  25.8303047  45.4176310  84.6940584  23.4069733  22.8740917
  85.5559748  23.7324632  23.1336734  84.8790928  22.6201229  22.3613983
  76.7108000  31.4892073  35.1521106  76.0171471  31.0746026  34.6391060
  77.4580991  31.5312609  34.5554525  92.8473220  22.2798260  30.0176140
  92.2671889  22.9383064  29.6354193  92.5809153  21.4575604  29.6063558
  91.2976787  21.6803317  32.2197460  91.7976565  21.7919852  31.4111779
  91.9412395  21.3764370  32.8598269  85.3558783  29.5881947  45.1065301
  84.8725864  30.3882307  45.3129190  85.4419722  29.5989892  44.1532745
  78.6244742  31.4210327  33.0287121  78.6015430  31.5198014  32.0769004
  78.9345379  32.2675478  33.3504287  81.2832120  33.4786482  37.1433735
  82.2375374  33.4470424  37.0763667  81.0844644  33.0177106  37.9583961
  81.8731502  32.0487598  39.7104533  82.6924391  32.5431677  39.7339370
  82.1468310  31.1319566  39.6822100  91.6298098  24.4398350  29.0732488
  90.7423953  24.7248001  28.8552683  92.0452088  24.2792114  28.2259765
  94.9812635  24.4644871  32.7886828  95.7573025  24.9541324  33.0611444
  94.2560769  24.8902925  33.2458697  97.4185193  25.1772490  33.8460768
  98.0129684  24.9368226  33.1354076  97.4911777  24.4579621  34.4734305
  79.6382349  39.0206101  34.1603933  79.5036817  38.2606502  33.5941931
  79.2214411  39.7447001  33.6932722  90.7741312  34.2043025  23.1680508
  91.4777162  34.4093027  23.7838164  90.0503961  34.7719787  23.4329592
  91.6039122  29.9552886  29.2882779  91.5474324  30.4121438  28.4490411
  92.1567465  29.1943571  29.1105621  95.4143928  25.7442618  30.1132898
  95.1580862  25.3439254  30.9441106  94.7896796  26.4586412  29.9883037
  99.7256266  28.4838691  32.6204189  99.1655824  28.5531881  33.3935751
  99.1199769  28.3079676  31.9003686  82.7951475  39.9175418  34.3722376
  82.6783859  40.8620851  34.2701066  81.9743921  39.6148980  34.7608175
  92.6828009  34.6425554  25.2178968  93.5173613  34.2106752  25.0356443
  92.5212352  34.4707568  26.1455863  92.3373902  31.1457667  26.5835308
  92.2822705  30.9801939  25.6423752  91.7119957  31.8533700  26.7397497
  77.1266416  26.3825732  40.4096730  77.7725280  25.8724686  40.8983955
  76.9183568  27.1194413  40.9840155  89.6519809  33.4506579  45.9088870
  90.5210968  33.6247231  45.5475505  89.1726560  34.2700996  45.7864600
  85.6470027  20.6465776  26.1620626  85.6348697  21.5907616  26.3188897
  86.5393449  20.4635922  25.8680087  83.8205989  40.5703680  37.5878304
  84.7233236  40.6027290  37.9044799  83.5943359  39.6404131  37.6024640
  85.5759591  39.3234667  34.2488383  84.6255222  39.3236528  34.1352755
  85.8792077  38.5767401  33.7324417  89.4622146  17.2408553  30.4166563
  88.6954542  16.6867040  30.5623245  89.8732851  17.3130422  31.2780715
  81.4663907  23.5293349  44.5071744  82.3295369  23.1730154  44.7175069
  80.8929318  23.1907244  45.1947148 101.3112284  45.1595205  35.3134145
 101.9490694  45.0401952  34.6097485 101.1933127  46.1076049  35.3722097
  98.1201991  45.1122633  35.2495670  97.7820502  44.9963698  34.3616205
  98.9891759  44.7113798  35.2296676  93.9788806  46.9658110  31.2392561
  93.4153672  46.8748047  30.4708849  93.8641201  46.1458014  31.7195053
  98.6021774  46.2657485  41.2081875  98.5910414  45.8710283  40.3362379
  98.7642413  45.5323558  41.8015647  91.5253238  48.4609301  34.0776781
  92.3174530  48.1200126  33.6623081  91.7649888  48.5704276  34.9978935
  99.5588365  50.6329077  26.5507026  98.9076345  51.2183158  26.1641039
 100.3532728  51.1635272  26.6102063  93.4843992  47.7218214  26.9494160
  94.2574868  47.1747202  26.8107036  93.8369391  48.5862464  27.1608621
  95.3229035  49.0494597  40.1561059  95.0318901  49.9540228  40.0407726
  95.9586019  49.0911124  40.8705129  96.2485242  46.4271445  36.7462419
  96.8448814  46.2027468  36.0319382  96.3060213  45.6856191  37.3487867
  95.8210270  43.8810881  24.5812610  96.0735791  43.3592402  23.8196073
  94.8834829  43.7177026  24.6839294 100.8653553  42.8846659  32.3887353
 101.6516642  42.4666082  32.0377770 101.1292257  43.7892751  32.5569002
 101.0363630  48.3219509  27.0876010 100.4009463  48.3954136  27.7996915
 100.7061037  48.9113108  26.4095089 106.2661980  42.8221892  33.2920332
 106.9987152  42.2521109  33.5258161 105.5101336  42.4343493  33.7326837
  95.5406559  45.7838987  26.7836985  95.4242817  45.1083890  27.4518069
  95.6508819  45.2971361  25.9669138  97.8838100  45.2449134  30.4883674
  97.5196307  44.7179755  31.1996596  98.7405216  44.8547603  30.3150160
 103.7887400  36.5343466  37.7514940 103.4570725  37.4038877  37.5276155
 103.1933014  36.2179750  38.4308971  97.5243587  40.2739033  25.4845023
  97.6917989  41.1419270  25.8515494  97.3340756  40.4366315  24.5606312
 100.2818920  48.7356012  37.1510853  99.9819643  49.6381051  37.0426660
  99.9369979  48.4688195  38.0032006  93.7331401  45.1869809  33.1847557
  92.8081898  45.0546023  33.3925249  93.9815815  45.9664028  33.6817500
 103.6816064  41.2538552  34.8308290 102.7732941  41.1853961  34.5367051
 103.6303659  41.7310497  35.6590116  97.5032808  42.7296691  26.4691690
  97.3832433  43.1753742  27.3077170  96.8085396  43.0782009  25.9105228
  91.0940212  44.8303083  34.0191347  91.2232594  45.0837562  34.9330758
  90.4137664  45.4230791  33.6996002  95.2639700  55.5000333  30.1181821
  95.1863729  56.4508158  30.1970301  94.6601343  55.1546205  30.7756747
  97.7556929  42.6728198  42.7743188  96.9790264  43.2322118  42.7646052
  98.3947493  43.1584981  43.2958058 105.5477710  39.4554991  36.6086164
 104.9052090  39.7487524  35.9625959 105.0432639  39.3407911  37.4139361
 103.2017874  43.2018164  27.2972024 104.1135730  43.4345551  27.1219721
 102.6927521  43.7855208  26.7347102  96.0103302  45.4813651  42.3361155
  96.7517986  46.0198695  42.0595978  95.3040287  46.1079940  42.4932706
 101.4858641  47.6242792  40.9333316 101.8941997  47.1825202  40.1887948
 100.7635903  47.0495419  41.1867509  97.8389711  42.5615399  38.3066873
  98.6850907  42.9854812  38.4501522  97.7788349  41.9049023  39.0005436
 101.8087456  48.1843982  34.6885605 101.1796319  48.3489697  33.9861673
 101.4213118  48.5985592  35.4596569 105.6876688  49.1198420  32.0429969
 105.0027726  49.4997322  31.4927002 105.7720537  49.7293747  32.7761917
 100.9889157  40.2219767  39.9648047 100.7450089  40.9761828  39.4282322
 101.2649087  40.6005115  40.7995294 102.9427620  46.7658379  38.6425312
 103.1544515  47.4090139  37.9659693 102.8957368  45.9320696  38.1747242
 100.5453849  39.3776200  35.5461884  99.6838328  39.6757454  35.8378622
 100.5716283  39.5946599  34.6142917  97.3615418  47.9218391  31.9535690
  97.8253763  48.2006094  31.1640313  97.0972216  47.0201835  31.7708781
  94.2539499  47.4689872  34.8915453  94.8240856  47.8977140  34.2532938
  94.8447611  47.1872457  35.5899639  96.2984304  44.0441543  28.7625255
  97.0008347  44.4962587  29.2299182  95.9664932  43.4025362  29.3905148
  94.7464666  42.6353300  43.1376465  94.1163326  43.3169580  43.3711861
  94.6400753  42.5236381  42.1929603  90.0409638  42.3025096  34.0642389
  89.2508692  42.5582624  33.5882499  90.5320885  43.1173433  34.1694429
 104.0573448  49.6430335  36.8147670 104.8790891  49.2410522  36.5330351
 104.0535850  49.5398569  37.7663785  91.9924383  42.6669675  31.0225866
  91.1955547  42.7788369  31.5409361  91.7649976  43.0056327  30.1566756
  97.8230051  49.1914378  38.9708380  97.8874483  49.6534785  39.8066552
  97.1140975  48.5611743  39.0990690  88.3247341  42.5555586  36.4957380
  88.5755379  43.4402596  36.7614956  88.8606889  42.3760188  35.7232471
 112.1479441  45.9869083  33.1632641 111.3943149  45.4176481  33.0076646
 112.2826982  45.9531748  34.1103276  97.5378069  50.8582486  28.8387360
  97.4023743  51.7034021  29.2672208  98.0787881  51.0601763  28.0753294
  94.0245408  36.9374065  45.5001716  93.6312354  36.3840264  46.1749360
  94.8411549  37.2484644  45.8908233  90.9907466  48.3757924  29.4115286
  91.5031987  49.1701174  29.5620850  91.6430179  47.6784214  29.3448887
  92.8002351  51.4923680  31.4938039  92.9768979  52.4141645  31.3059023
  93.5959184  51.1782099  31.9232419  96.9413369  38.3531945  43.0921972
  97.6823083  38.9539098  43.0126435  97.1731292  37.6109582  42.5340015
  92.0854707  43.5388312  41.3700202  91.9708222  42.6373569  41.6707301
  91.2299225  43.7852009  41.0185018  99.1646545  51.4806052  42.9687703
  98.7210399  50.6942431  42.6508607  99.8263759  51.6685203  42.3031593
  93.9233666  53.0101854  37.4948381  94.4741091  52.8818917  36.7225375
  93.0845142  53.3096743  37.1443274 101.2627783  51.7608852  40.9969104
 101.2446258  52.5817733  40.5049373 102.1847703  51.6362927  41.2219245
  97.7200837  49.2752982  41.8392612  98.2529174  48.5141270  41.6091920
  97.1914918  48.9826633  42.5816767 100.8870532  34.3813047  37.3686254
 100.5434802  35.2714689  37.2925365 101.2549495  34.1914705  36.5055839
  88.9556383  46.7046578  30.1874856  89.7931605  47.1143586  29.9708564
  89.1334650  45.7646020  30.1575050 100.8520815  44.3721659  25.8758689
 100.3367438  45.1426263  26.1147076 100.5798123  43.6986795  26.4991750
  98.4367926  39.2171359  30.9343927  97.5809522  38.8278210  30.7549566
  98.8494878  39.2963320  30.0743713  99.9667073  36.7517703  35.3335487
  99.4631868  36.7147838  34.5203292 100.2597679  37.6610445  35.3932144
  96.2109958  36.8356432  34.3401669  97.0762955  36.6399241  33.9807558
  96.2787467  36.6066784  35.2671026 105.8255089  47.1254013  27.8111863
 105.0484532  46.7865173  27.3667025 106.5046570  47.1306636  27.1366828
 100.6407118  42.2448751  27.7018470 100.3357254  42.5594900  28.5528613
 101.5937560  42.3230171  27.7445803  99.0853550  48.4038974  29.3511424
  98.5574912  47.6691734  29.0384662  98.5841053  49.1813650  29.1051393
 104.0646396  46.5987994  34.4678471 103.4070070  47.2887256  34.5558599
 104.8686795  46.9884426  34.8112457  93.8172278  39.0658640  31.7118036
  94.3916029  38.8433822  30.9791229  94.4043260  39.1347335  32.4646637
 102.8751855  44.9532367  32.5182412 103.3883736  45.5862359  33.0204122
 103.5253079  44.3533563  32.1525772  94.1441865  41.0963101  25.7313921
  93.3079177  41.4337788  26.0523196  94.0046634  40.9612081  24.7941058
  96.1194945  35.9399889  30.4393105  95.4659358  35.6248906  29.8149720
  96.0775419  35.3175630  31.1652928  97.2306150  46.2219184  22.3546397
  96.3233212  45.9908438  22.5537546  97.7277182  45.4256803  22.5420379
 100.1374229  54.9316691  25.2743083  99.4635928  55.2348388  25.8828041
 100.5240051  55.7345772  24.9248540  99.3532686  42.4281823  34.7640753
  98.4355247  42.6496770  34.6062441  99.7692829  42.5028133  33.9052460
 100.1367733  43.8273238  29.8943433 100.8839552  44.3394636  29.5850555
 100.4059323  43.5057291  30.7547827  98.4094384  46.3231779  26.8770387
  97.5005603  46.0390812  26.9742857  98.4389467  46.7430858  26.0173694
 103.6413651  49.9338369  30.6461555 103.1875978  49.0929278  30.7026745
 103.0107618  50.5699767  30.9836335 102.5846571  40.8630355  31.8762222
 101.8469327  40.3507741  32.2072465 102.8373344  40.4230736  31.0645499
 102.0846590  51.7714865  31.5811373 102.3769565  52.3319922  30.8623739
 102.5945211  52.0643426  32.3364532 102.6858198  33.6406607  32.4703992
 102.9917075  32.7803970  32.1829907 103.4110803  34.2324227  32.2702986
  88.9782554  44.0437293  30.8585590  88.7806954  43.4506654  30.1336656
  88.4229218  43.7389503  31.5761528  96.9579278  43.9360400  32.9780183
  97.0127887  42.9834236  32.9022659  96.1470480  44.0919839  33.4621481
  98.1070471  47.8640523  24.2158466  97.6689901  47.1476382  23.7564103
  98.8480912  48.0916638  23.6543557  94.8971638  42.5537459  30.7370562
  94.0839503  42.8531630  31.1435754  95.3930632  42.1593148  31.4545044
  97.0480215  52.5495216  32.6704826  97.0056394  52.7756063  31.7413358
  97.9642914  52.3158591  32.8190627 100.4945849  43.0179284  39.5685455
 100.8495237  43.2450757  40.4279921 101.1417980  43.3497661  38.9462711
 106.2243586  46.1397720  30.2734784 106.0861485  46.3299316  29.3455974
 105.8679805  46.9017103  30.7302836  94.3885712  40.1255815  36.3531797
  95.0285092  39.9844574  35.6554760  93.5563243  39.8390328  35.9770398
 106.2512966  48.2074247  35.2846056 106.6849472  48.1149536  36.1329110
 106.9644546  48.1831747  34.6466072  95.1646016  49.4258245  32.4666789
  95.9586615  48.9308566  32.2649364  94.4537709  48.8976109  32.1034495
  99.9840861  51.8076341  36.8179157 100.0377883  52.3767277  37.5856872
  99.1155642  51.9778226  36.4533194  91.4728780  43.5701327  28.5426542
  90.5426368  43.5085783  28.7596504  91.5686252  43.0477280  27.7463183
  91.3914329  40.0956140  31.1304783  91.6521146  41.0101473  31.0213944
  92.2131501  39.6280583  31.2801396  92.8639254  41.5093897  38.3003608
  93.5362307  41.3011259  37.6516257  92.0369041  41.3115983  37.8608840
 107.1128515  48.2497947  37.8178941 107.3064405  49.1543758  38.0638216
 107.0129133  47.7905367  38.6517526  98.7664826  38.1355838  40.3169269
  98.1192741  38.8345788  40.2233745  99.5365841  38.5691982  40.6845517
 102.1743624  48.4004690  43.3919822 102.0229130  48.1715242  42.4749906
 102.1648303  49.3575292  43.4051167  98.9428960  45.9736603  38.3766088
  99.8721020  46.1247763  38.2035056  98.5219990  46.0620624  37.5214735
  97.7417292  49.9987267  36.1464626  97.6028378  49.6306052  37.0190564
  96.9531888  50.5134907  35.9748584  98.3365444  55.0996364  27.4890163
  98.5117200  54.6284407  28.3035785  97.6498232  55.7262130  27.7171423
  99.2922507  49.3768870  33.5353464  98.9572340  49.3369640  34.4311114
  98.7926453  48.7113586  33.0623874  93.2666751  44.7836500  39.0606045
  93.1286549  44.0516739  39.6617584  94.1771675  44.6945400  38.7790233
 102.2281699  46.7224904  23.8090523 101.6110870  45.9971733  23.7123576
 101.7598187  47.4834265  23.4657598  95.8949052  44.4956459  38.5489725
  96.6048670  43.8549652  38.5076343  95.8518360  44.7469354  39.4715905
 103.8835831  51.4323813  41.4696304 103.8248377  50.7483033  40.8026887
 104.2855349  52.1742803  41.0176930  94.6077986  41.4821677  40.3685364
  94.0715343  41.0312416  41.0206960  94.0194694  41.6167586  39.6255828
  92.9026529  58.2485727  34.2630023  93.1423128  58.8804251  34.9409041
  92.0595726  57.8973767  34.5495382  94.0180245  40.9410329  22.9311828
  93.1409711  40.8199130  22.5674074  94.4937998  40.1496407  22.6790716
 103.8853238  49.3963397  39.7010284 102.9980017  49.0589319  39.8236682
 104.4551789  48.6646428  39.9379049  85.5382385  45.7287488  33.0253335
  86.2253425  45.4149218  32.4374350  85.3830514  46.6328853  32.7520586
  90.3417107  40.6177685  37.4538359  90.2575296  40.0103355  36.7188769
  89.5199814  41.1086703  37.4547855  97.4154391  54.0564849  36.6671527
  97.3424563  54.8619821  37.1790831  96.9731784  54.2556815  35.8419548
  97.2044171  53.2936619  30.1774348  96.4211693  53.8358299  30.2712573
  97.9036916  53.8110599  30.5768589 100.5140821  39.1031249  32.8208554
 101.0109521  38.3501211  32.5009624  99.7427803  39.1395565  32.2551763
 108.3670578  44.8071614  34.4626845 108.3560455  45.6896330  34.0920778
 107.4987958  44.4543165  34.2681382  99.8753075  53.9551683  38.8229685
 100.5881047  54.5899148  38.7505587  99.3843103  54.0515549  38.0069687
 101.5970602  47.8602936  30.3946977 100.6626880  47.9804398  30.2251681
 101.7747270  46.9575403  30.1306987  97.0975790  41.2448632  32.5480238
  96.7273577  40.6919672  33.2361144  97.5934882  40.6406765  31.9955238
 104.9843153  43.7020255  30.9297011 105.4503605  44.5348247  30.8557314
 105.4350654  43.2365237  31.6342270  94.9264988  51.7046127  39.6435256
  95.6274448  52.3382610  39.7964650  94.4560103  52.0460858  38.8830895
 103.0519384  50.0464076  27.9283163 103.3279228  49.9320671  28.8377037
 102.1823883  49.6481561  27.8895336 102.9559816  36.0700842  34.9687913
 102.0422896  36.3005069  35.1370119 103.3852917  36.1539286  35.8201945
 102.7266274  44.2590734  37.4687807 102.0737725  44.5066641  36.8140259
 103.1046654  43.4454872  37.1350284  99.6873448  54.2950427  31.5715977
  99.8695843  53.4772083  32.0343729 100.5106434  54.5118119  31.1340867
 100.0215614  53.2218612  28.8331025 100.5503380  52.7111067  28.2201187
 100.2843833  52.9061143  29.6976558  98.7753847  45.0010545  43.9553844
  98.0994484  44.9004674  44.6256219  99.5981481  44.8449759  44.4189841
  90.5232706  51.2382482  36.5766359  91.1086143  50.4926170  36.7094263
  90.3257545  51.5486438  37.4603023  93.3771362  54.2733729  31.5928801
  92.7081737  54.7579857  31.1092841  93.2384231  54.5202949  32.5072180
  85.1150361  43.8088082  35.2970802  85.1534461  43.2751673  36.0907920
  84.6090654  43.2823287  34.6781779  97.5176630  56.3077473  38.1911460
  98.0694938  56.4709094  38.9560545  97.8582824  56.8981910  37.5191484
  92.4941123  38.6552622  38.7933344  92.5582450  39.5167453  38.3810742
  92.4308244  38.0426624  38.0605703  91.9693396  40.7275755  42.4406379
  92.5965435  40.3452832  43.0543903  91.1121315  40.5089957  42.8062071
 102.3687505  51.1338730  44.0460114 102.9127409  51.7468688  43.5515069
 101.7874349  51.6918308  44.5627127  88.7458939  42.5352184  28.3724733
  89.0412380  41.6262862  28.3191787  87.8446974  42.5139923  28.0505736
 100.6545017  54.2559448  35.1775142 100.5296157  53.4549188  34.6686087
 101.3124109  54.7505641  34.6889112  92.2753186  40.6108181  34.3552282
  91.5539771  41.2244148  34.2159755  93.0646441  41.1465945  34.2768928
 102.7179926  52.0568468  36.8054692 101.7710261  51.9373819  36.7333019
 103.0662699  51.1690966  36.8880953  95.0779499  37.9462607  40.6292934
  95.6013901  38.1924904  41.3919243  94.8591833  38.7782642  40.2096071
  90.4746780  40.2166282  28.4964059  90.1459486  39.3363661  28.3139165
  90.8286151  40.1613950  29.3840448  99.7226359  51.8521184  33.0059044
  99.5751322  50.9237892  33.1866614 100.5479853  51.8741275  32.5216119
  93.5888603  40.5039251  28.8639536  93.9284676  41.0325173  28.1418145
  94.0360724  40.8419658  29.6398103 103.3260481  52.6749743  34.0923917
 104.2507028  52.4692604  33.9548368 103.1575784  52.4266144  35.0013258
  96.2832044  38.8876302  38.3142604  95.9428865  38.0884115  38.7163284
  95.5771051  39.1878013  37.7419438  96.9348516  35.9725615  36.7669927
  97.7574585  35.4986093  36.6448818  97.1786580  36.7516098  37.2668614
  95.5756751  39.0013873  27.0632829  96.2965113  39.3795126  26.5596546
  94.9522055  39.7202750  27.1667807  99.7187873  39.7059022  27.9991161
  99.9351488  40.5883660  27.6979990  99.2381941  39.3145235  27.2696803
  94.4587095  42.6644735  34.5761906  94.3131676  42.9785038  35.4686187
  93.9812298  43.2829636  34.0232805  96.3183478  39.6547283  34.6242796
  96.3045047  38.7588377  34.2875093  97.0355906  39.6617947  35.2581082
  98.1709608  40.0884623  36.6695923  97.9127386  41.0101694  36.6680253
  97.6394649  39.6915058  37.3596387 103.1155797  53.1935411  29.4486008
 103.2892675  52.6281833  28.6959861 103.6084688  53.9936305  29.2665498
  88.9332757  45.2050080  37.5149567  88.3886225  45.9809888  37.6469841
  89.8112107  45.5520884  37.3568689  95.7220374  38.5361663  29.8930366
  95.8436285  37.6078310  30.0921253  95.4322416  38.5500349  28.9808681
  98.5911564  36.2216574  33.0297085  98.6133261  36.2855907  32.0749065
  99.0079623  35.3821083  33.2237592 108.9695188  45.9571833  31.0676308
 109.4126334  45.2079159  30.6695431 108.0921699  45.9481970  30.6850040
 104.1030970  52.5102175  26.5482907 104.7981874  53.1308868  26.7670221
 104.4454120  51.6597526  26.8235284  89.7198779  44.3319976  40.4079724
  88.9780515  44.4802611  40.9944354  89.3991523  44.5928241  39.5446473
 106.0022393  49.9601880  28.0770237 106.5273717  50.2989153  27.3519557
 105.9144745  49.0248896  27.8933372  97.6642442  53.8735954  40.2060114
  97.9729568  53.6285101  41.0782814  98.4617924  54.0782593  39.7178984
  97.6863054  56.0273864  32.4365491  97.2468044  55.5350242  33.1298347
  98.4371171  55.4846831  32.1957566  90.1655393  52.2185405  32.4390119
  90.9913412  51.9189176  32.0588762  89.8149445  51.4493027  32.8879907
  95.1336926  51.5711873  34.5087792  94.5116935  50.9082578  34.2090020
  95.8041793  51.5973005  33.8261440  88.3663998  50.1371731  33.3979052
  87.5295906  49.7093905  33.2163053  88.3387643  50.3304174  34.3349843
  95.2061453  40.0493661  44.1020298  95.2549609  40.9255784  43.7198068
  95.7483967  39.5071054  43.5291941 105.6916299  50.5934784  43.3821435
 104.9011843  50.5758923  42.8425935 105.4549653  51.1323078  44.1370472
 105.8114174  47.4427250  40.6954164 105.8612179  47.2777258  41.6369687
 105.7028097  46.5754509  40.3052045  94.6950433  50.1215796  27.9846253
  94.8438553  50.8051261  27.3312926  95.5016876  50.1020886  28.4995709
 103.1017936  43.4258178  42.0113471 104.0027799  43.2864643  41.7197468
 103.1765911  43.5912633  42.9511648  97.4360742  40.8025033  40.8566657
  96.5664051  41.0958599  40.5849245  97.6720222  41.3865478  41.5773921
 107.3132371  49.8624192  40.9396185 107.0217179  50.2254173  41.7759646
 106.7004502  49.1491200  40.7609517 108.5128053  47.4277072  33.4598756
 109.3474944  47.8666876  33.6236316 108.6487182  46.9515725  32.6407001
 105.5619559  44.9856807  39.4076243 106.0373681  45.1784453  38.5995095
 104.6385124  45.0415992  39.1619627  92.4503066  46.1480974  28.9907322
  92.2049108  45.2443304  29.1887532  92.6198980  46.1498124  28.0486800
 100.1399775  37.0204650  38.3732077 100.6581719  37.7565677  38.0478566
  99.7854908  37.3268643  39.2078836  91.7198713  41.8809331  26.4893483
  91.0267958  41.9553686  25.8333519  91.4750465  41.1169675  27.0115000
 100.3912370  33.4404933  33.8932974 100.6714123  32.7728122  34.5193400
 101.1762977  33.6334028  33.3807638  98.1945838  52.6163927  25.4558000
  97.6219805  53.2354114  25.0028472  98.7678632  53.1663288  25.9897922
 104.2621228  41.8622567  37.6404549 105.2138651  41.9620664  37.6616773
 104.0924678  41.0700835  38.1502633 102.2835607  38.9478150  37.8263950
 101.6885540  39.2283163  37.1310439 101.9985304  39.4372051  38.5980691
 101.4143098  52.9001077  26.5866582 102.3473771  52.8346638  26.7899458
 101.3266311  53.7357344  26.1281115 104.0431115  52.2166947  23.5470530
 103.9644746  51.8826811  24.4406288 104.8640781  52.7088715  23.5462002
 106.7409306  45.0828686  36.7546849 106.7085626  44.1444687  36.9406532
 107.3509929  45.1612723  36.0212674  98.5792637  43.9524739  22.7974053
  99.5251741  43.8230947  22.8662471  98.2006882  43.2139401  23.2743481
 106.8903794  41.8739730  36.8005132 106.3742843  41.0898186  36.6135061
 107.7743743  41.5458446  36.9651651 104.5514521  35.6180745  32.7600945
 104.3539342  35.3095834  33.6444276 105.1614227  36.3442384  32.8898874
 112.5585856  46.1444693  35.8952885 113.2889244  45.8829981  36.4560589
 111.9492801  45.4073415  35.9354953 110.6401153  44.2852556  36.4927337
 109.9134316  44.1508521  35.8843828 110.2248440  44.5929384  37.2984055
  98.4631329  48.0042485  44.2574710  99.3834339  48.1821085  44.4514756
  98.4280912  47.0598531  44.1054409  96.7635554  41.8774716  22.7328938
  95.8567009  41.5807828  22.8091652  97.0411535  41.5804534  21.8663224
  87.6813494  43.1981079  33.1827984  87.3616279  42.3446387  32.8902358
  87.1346922  43.4129657  33.9385952  91.4593402  45.9143520  36.8997491
  91.6779412  46.8460628  36.9185525  91.8719176  45.5551495  37.6852295
  98.3797620  36.4211605  28.8873179  97.5698348  36.0758690  29.2628425
  99.0682036  36.1119149  29.4760791 100.3088168  35.4989652  30.5097476
 100.8619206  35.9185106  31.1687499 100.5458254  34.5725400  30.5520432
  96.3321267  41.4876726  46.2900240  96.2317994  42.4371083  46.2212331
  96.1142809  41.1594965  45.4176310  95.5334338  38.7361651  22.8740917
  96.3953502  39.0616549  23.1336734  95.7184683  37.9493147  22.3613983
  87.5501754  46.8183991  35.1521106  86.8565226  46.4037943  34.6391060
  88.2974745  46.8604527  34.5554525 103.6866975  37.6090177  30.0176140
 103.1065644  38.2674981  29.6354193 103.4202908  36.7867522  29.6063558
 102.1370541  37.0095235  32.2197460 102.6370320  37.1211770  31.4111779
 102.7806149  36.7056288  32.8598269  96.1952537  44.9173865  45.1065301
  95.7119619  45.7174225  45.3129190  96.2813476  44.9281810  44.1532745
  89.4638497  46.7502244  33.0287121  89.4409185  46.8489932  32.0769004
  89.7739133  47.5967395  33.3504287  92.1225875  48.8078399  37.1433735
  93.0769128  48.7762342  37.0763667  91.9238398  48.3469023  37.9583961
  92.7125257  47.3779516  39.7104533  93.5318146  47.8723594  39.7339370
  92.9862064  46.4611484  39.6822100 102.4691853  39.7690268  29.0732488
 101.5817708  40.0539918  28.8552683 102.8845842  39.6084031  28.2259765
 105.8206389  39.7936789  32.7886828 106.5966779  40.2833241  33.0611444
 105.0954523  40.2194843  33.2458697 108.2578948  40.5064408  33.8460768
 108.8523439  40.2660144  33.1354076 108.3305531  39.7871539  34.4734305
  90.4776103  54.3498019  34.1603933  90.3430571  53.5898420  33.5941931
  90.0608166  55.0738919  33.6932722 101.6135066  49.5334942  23.1680508
 102.3170917  49.7384945  23.7838164 100.8897715  50.1011704  23.4329592
 102.4432877  45.2844804  29.2882779 102.3868078  45.7413355  28.4490411
 102.9961219  44.5235488  29.1105621 106.2537683  41.0734536  30.1132898
 105.9974617  40.6731171  30.9441106 105.6290551  41.7878330  29.9883037
 110.5650020  43.8130609  32.6204189 110.0049578  43.8823798  33.3935751
 109.9593524  43.6371593  31.9003686  93.6345229  55.2467336  34.3722376
  93.5177613  56.1912768  34.2701066  92.8137676  54.9440898  34.7608175
 103.5221764  49.9717472  25.2178968 104.3567368  49.5398670  25.0356443
 103.3606107  49.7999485  26.1455863 103.1767656  46.4749585  26.5835308
 103.1216460  46.3093856  25.6423752 102.5513711  47.1825618  26.7397497
  87.9660171  41.7117649  40.4096730  88.6119035  41.2016603  40.8983955
  87.7577322  42.4486331  40.9840155 100.4913563  48.7798497  45.9088870
 101.3604723  48.9539149  45.5475505 100.0120315  49.5992914  45.7864600
  96.4863781  35.9757694  26.1620626  96.4742451  36.9199534  26.3188897
  97.3787203  35.7927839  25.8680087  94.6599743  55.8995598  37.5878304
  95.5626990  55.9319208  37.9044799  94.4337113  54.9696049  37.6024640
  96.4153345  54.6526584  34.2488383  95.4648976  54.6528446  34.1352755
  96.7185832  53.9059319  33.7324417 100.3015901  32.5700471  30.4166563
  99.5348297  32.0158957  30.5623245 100.7126606  32.6422339  31.2780715
  92.3057662  38.8585266  44.5071744  93.1689124  38.5022071  44.7175069
  91.7323073  38.5199161  45.1947148 112.1506039  60.4887123  35.3134145
 112.7884449  60.3693870  34.6097485 112.0326882  61.4367967  35.3722097
 108.9595745  60.4414551  35.2495670 108.6214257  60.3255616  34.3616205
 109.8285513  60.0405716  35.2296676 104.8182561  62.2950027  31.2392561
 104.2547426  62.2039964  30.4708849 104.7034956  61.4749932  31.7195053
 109.4415528  61.5949403  41.2081875 109.4304169  61.2002201  40.3362379
 109.6036168  60.8615475  41.8015647 102.3646993  63.7901219  34.0776781
 103.1568285  63.4492044  33.6623081 102.6043643  63.8996194  34.9978935
 110.3982120  65.9620995  26.5507026 109.7470099  66.5475075  26.1641039
 111.1926482  66.4927190  26.6102063 104.3237747  63.0510132  26.9494160
 105.0968623  62.5039119  26.8107036 104.6763146  63.9154381  27.1608621
 106.1622789  64.3786514  40.1561059 105.8712655  65.2832145  40.0407726
 106.7979774  64.4203042  40.8705129 107.0878996  61.7563363  36.7462419
 107.6842568  61.5319385  36.0319382 107.1453968  61.0148108  37.3487867
 106.6604025  59.2102798  24.5812610 106.9129545  58.6884320  23.8196073
 105.7228584  59.0468944  24.6839294 111.7047307  58.2138577  32.3887353
 112.4910397  57.7958000  32.0377770 111.9686012  59.1184669  32.5569002
 111.8757385  63.6511427  27.0876010 111.2403218  63.7246053  27.7996915
 111.5454791  64.2405026  26.4095089 117.1055735  58.1513810  33.2920332
 117.8380906  57.5813027  33.5258161 116.3495090  57.7635410  33.7326837
 106.3800313  61.1130904  26.7836985 106.2636571  60.4375808  27.4518069
 106.4902573  60.6263278  25.9669138 108.7231854  60.5741051  30.4883674
 108.3590061  60.0471672  31.1996596 109.5798970  60.1839520  30.3150160
 114.6281155  51.8635384  37.7514940 114.2964480  52.7330795  37.5276155
 114.0326768  51.5471668  38.4308971 108.3637341  55.6030951  25.4845023
 108.5311744  56.4711187  25.8515494 108.1734510  55.7658233  24.5606312
 111.1212674  64.0647930  37.1510853 110.8213397  64.9672969  37.0426660
 110.7763734  63.7980113  38.0032006 104.5725156  60.5161727  33.1847557
 103.6475652  60.3837941  33.3925249 104.8209569  61.2955946  33.6817500
 114.5209818  56.5830470  34.8308290 113.6126696  56.5145879  34.5367051
 114.4697414  57.0602415  35.6590116 108.3426562  58.0588609  26.4691690
 108.2226187  58.5045659  27.3077170 107.6479150  58.4073926  25.9105228
 101.9333967  60.1595000  34.0191347 102.0626348  60.4129479  34.9330758
 101.2531418  60.7522708  33.6996002 106.1033454  70.8292250  30.1181821
 106.0257484  71.7800075  30.1970301 105.4995098  70.4838123  30.7756747
 108.5950684  58.0020116  42.7743188 107.8184018  58.5614036  42.7646052
 109.2341247  58.4876899  43.2958058 116.3871465  54.7846909  36.6086164
 115.7445845  55.0779442  35.9625959 115.8826393  54.6699829  37.4139361
 114.0411628  58.5310082  27.2972024 114.9529484  58.7637468  27.1219721
 113.5321275  59.1147126  26.7347102 106.8497056  60.8105569  42.3361155
 107.5911741  61.3490613  42.0595978 106.1434042  61.4371858  42.4932706
 112.3252396  62.9534710  40.9333316 112.7335752  62.5117120  40.1887948
 111.6029657  62.3787337  41.1867509 108.6783466  57.8907316  38.3066873
 109.5244661  58.3146730  38.4501522 108.6182104  57.2340941  39.0005436
 112.6481211  63.5135900  34.6885605 112.0190073  63.6781614  33.9861673
 112.2606873  63.9277510  35.4596569 116.5270442  64.4490338  32.0429969
 115.8421481  64.8289239  31.4927002 116.6114292  65.0585665  32.7761917
 111.8282911  55.5511685  39.9648047 111.5843843  56.3053745  39.4282322
 112.1042842  55.9297032  40.7995294 113.7821374  62.0950297  38.6425312
 113.9938269  62.7382057  37.9659693 113.7351122  61.2612614  38.1747242
 111.3847603  54.7068118  35.5461884 110.5232082  55.0049371  35.8378622
 111.4110038  54.9238517  34.6142917 108.2009172  63.2510308  31.9535690
 108.6647518  63.5298011  31.1640313 107.9365971  62.3493753  31.7708781
 105.0933253  62.7981790  34.8915453 105.6634611  63.2269058  34.2532938
 105.6841365  62.5164375  35.5899639 107.1378058  59.3733461  28.7625255
 107.8402102  59.8254504  29.2299182 106.8058687  58.7317279  29.3905148
 105.5858420  57.9645217  43.1376465 104.9557081  58.6461498  43.3711861
 105.4794508  57.8528299  42.1929603 100.8803392  57.6317013  34.0642389
 100.0902446  57.8874542  33.5882499 101.3714640  58.4465351  34.1694429
 114.8967202  64.9722252  36.8147670 115.7184646  64.5702440  36.5330351
 114.8929605  64.8690487  37.7663785 102.8318138  57.9961593  31.0225866
 102.0349301  58.1080287  31.5409361 102.6043730  58.3348245  30.1566756
 108.6623805  64.5206296  38.9708380 108.7268238  64.9826703  39.8066552
 107.9534729  63.8903661  39.0990690  99.1641095  57.8847504  36.4957380
  99.4149134  58.7694514  36.7614956  99.7000644  57.7052105  35.7232471
 108.3771823  66.1874403  28.8387360 108.2417498  67.0325939  29.2672208
 108.9181636  66.3893681  28.0753294 104.8639163  52.2665983  45.5001716
 104.4706108  51.7132182  46.1749360 105.6805303  52.5776562  45.8908233
 101.8301221  63.7049841  29.4115286 102.3425741  64.4993092  29.5620850
 102.4823933  63.0076132  29.3448887 103.6396105  66.8215598  31.4938039
 103.8162734  67.7433562  31.3059023 104.4352939  66.5074017  31.9232419
 107.7807124  53.6823862  43.0921972 108.5216837  54.2831015  43.0126435
 108.0125047  52.9401500  42.5340015 102.9248462  58.8680229  41.3700202
 102.8101977  57.9665487  41.6707301 102.0692979  59.1143926  41.0185018
 110.0040299  66.8097970  42.9687703 109.5604154  66.0234348  42.6508607
 110.6657513  66.9977120  42.3031593 104.7627421  68.3393771  37.4948381
 105.3134846  68.2110835  36.7225375 103.9238897  68.6388660  37.1443274
 112.1021538  67.0900770  40.9969104 112.0840013  67.9109651  40.5049373
 113.0241458  66.9654845  41.2219245 108.5594592  64.6044899  41.8392612
 109.0922929  63.8433187  41.6091920 108.0308673  64.3118551  42.5816767
 111.7264287  49.7104965  37.3686254 111.3828556  50.6006607  37.2925365
 112.0943249  49.5206623  36.5055839  99.7950137  62.0338496  30.1874856
 100.6325359  62.4435504  29.9708564  99.9728405  61.0937938  30.1575050
 111.6914569  59.7013576  25.8758689 111.1761193  60.4718181  26.1147076
 111.4191878  59.0278712  26.4991750 109.2761680  54.5463277  30.9343927
 108.4203277  54.1570127  30.7549566 109.6888632  54.6255238  30.0743713
 110.8060827  52.0809620  35.3335487 110.3025623  52.0439755  34.5203292
 111.0991434  52.9902363  35.3932144 107.0503713  52.1648350  34.3401669
 107.9156710  51.9691159  33.9807558 107.1181222  51.9358702  35.2671026
 116.6648844  62.4545931  27.8111863 115.8878286  62.1157090  27.3667025
 117.3440325  62.4598554  27.1366828 111.4800873  57.5740668  27.7018470
 111.1751008  57.8886818  28.5528613 112.4331315  57.6522088  27.7445803
 109.9247304  63.7330892  29.3511424 109.3968666  62.9983651  29.0384662
 109.4234807  64.5105568  29.1051393 114.9040150  61.9279912  34.4678471
 114.2463825  62.6179174  34.5558599 115.7080550  62.3176344  34.8112457
 104.6566032  54.3950558  31.7118036 105.2309784  54.1725739  30.9791229
 105.2437014  54.4639252  32.4646637 113.7145609  60.2824285  32.5182412
 114.2277491  60.9154277  33.0204122 114.3646833  59.6825480  32.1525772
 104.9835619  56.4255019  25.7313921 104.1472931  56.7629706  26.0523196
 104.8440389  56.2903999  24.7941058 106.9588700  51.2691807  30.4393105
 106.3053112  50.9540824  29.8149720 106.9169174  50.6467547  31.1652928
 108.0699905  61.5511102  22.3546397 107.1626966  61.3200355  22.5537546
 108.5670937  60.7548721  22.5420379 110.9767983  70.2608609  25.2743083
 110.3029682  70.5640306  25.8828041 111.3633805  71.0637689  24.9248540
 110.1926440  57.7573740  34.7640753 109.2749001  57.9788687  34.6062441
 110.6086584  57.8320051  33.9052460 110.9761488  59.1565156  29.8943433
 111.7233307  59.6686553  29.5850555 111.2453077  58.8349209  30.7547827
 109.2488138  61.6523697  26.8770387 108.3399357  61.3682730  26.9742857
 109.2783222  62.0722775  26.0173694 114.4807405  65.2630286  30.6461555
 114.0269733  64.4221196  30.7026745 113.8501372  65.8991685  30.9836335
 113.4240325  56.1922272  31.8762222 112.6863082  55.6799659  32.2072465
 113.6767099  55.7522654  31.0645499 112.9240345  67.1006783  31.5811373
 113.2163319  67.6611840  30.8623739 113.4338965  67.3935344  32.3364532
 113.5251952  48.9698524  32.4703992 113.8310829  48.1095888  32.1829907
 114.2504557  49.5616145  32.2702986  99.8176308  59.3729211  30.8585590
  99.6200708  58.7798572  30.1336656  99.2622972  59.0681421  31.5761528
 107.7973032  59.2652317  32.9780183 107.8521642  58.3126154  32.9022659
 106.9864234  59.4211756  33.4621481 108.9464226  63.1932440  24.2158466
 108.5083656  62.4768299  23.7564103 109.6874667  63.4208555  23.6543557
 105.7365392  57.8829377  30.7370562 104.9233258  58.1823548  31.1435754
 106.2324386  57.4885066  31.4545044 107.8873970  67.8787134  32.6704826
 107.8450149  68.1047980  31.7413358 108.8036669  67.6450509  32.8190627
 111.3339604  58.3471202  39.5685455 111.6888991  58.5742675  40.4279921
 111.9811735  58.6789578  38.9462711 117.0637341  61.4689637  30.2734784
 116.9255239  61.6591233  29.3455974 116.7073559  62.2309020  30.7302836
 105.2279467  55.4547733  36.3531797 105.8678846  55.3136492  35.6554760
 104.3956997  55.1682246  35.9770398 117.0906720  63.5366164  35.2846056
 117.5243227  63.4441454  36.1329110 117.8038301  63.5123665  34.6466072
 106.0039771  64.7550163  32.4666789 106.7980369  64.2600483  32.2649364
 105.2931463  64.2268026  32.1034495 110.8234615  67.1368259  36.8179157
 110.8771637  67.7059195  37.5856872 109.9549396  67.3070144  36.4533194
 102.3122534  58.8993245  28.5426542 101.3820122  58.8377700  28.7596504
 102.4080006  58.3769198  27.7463183 102.2308083  55.4248058  31.1304783
 102.4914900  56.3393391  31.0213944 103.0525256  54.9572500  31.2801396
 103.7033009  56.8385815  38.3003608 104.3756062  56.6303177  37.6516257
 102.8762795  56.6407901  37.8608840 117.9522270  63.5789865  37.8178941
 118.1458160  64.4835676  38.0638216 117.8522888  63.1197284  38.6517526
 109.6058581  53.4647756  40.3169269 108.9586496  54.1637705  40.2233745
 110.3759596  53.8983900  40.6845517 113.0137378  63.7296608  43.3919822
 112.8622885  63.5007160  42.4749906 113.0042058  64.6867209  43.4051167
 109.7822715  61.3028521  38.3766088 110.7114775  61.4539680  38.2035056
 109.3613745  61.3912541  37.5214735 108.5811047  65.3279185  36.1464626
 108.4422132  64.9597969  37.0190564 107.7925643  65.8426824  35.9748584
 109.1759199  70.4288282  27.4890163 109.3510954  69.9576325  28.3035785
 108.4891987  71.0554048  27.7171423 110.1316262  64.7060788  33.5353464
 109.7966094  64.6661558  34.4311114 109.6320207  64.0405504  33.0623874
 104.1060506  60.1128418  39.0606045 103.9680304  59.3808657  39.6617584
 105.0165429  60.0237318  38.7790233 113.0675453  62.0516822  23.8090523
 112.4504624  61.3263650  23.7123576 112.5991942  62.8126182  23.4657598
 106.7342806  59.8248377  38.5489725 107.4442425  59.1841569  38.5076343
 106.6912115  60.0761272  39.4715905 114.7229585  66.7615730  41.4696304
 114.6642131  66.0774951  40.8026887 115.1249103  67.5034720  41.0176930
 105.4471740  56.8113595  40.3685364 104.9109097  56.3604333  41.0206960
 104.8588449  56.9459504  39.6255828 103.7420284  73.5777644  34.2630023
 103.9816882  74.2096168  34.9409041 102.8989480  73.2265684  34.5495382
 104.8573999  56.2702246  22.9311828 103.9803466  56.1491047  22.5674074
 105.3331752  55.4788325  22.6790716 114.7246992  64.7255314  39.7010284
 113.8373771  64.3881236  39.8236682 115.2945543  63.9938346  39.9379049
  96.3776139  61.0579406  33.0253335  97.0647179  60.7441136  32.4374350
  96.2224268  61.9620771  32.7520586 101.1810862  55.9469603  37.4538359
 101.0969050  55.3395272  36.7188769 100.3593568  56.4378621  37.4547855
 108.2548146  69.3856767  36.6671527 108.1818317  70.1911738  37.1790831
 107.8125539  69.5848733  35.8419548 108.0437925  68.6228537  30.1774348
 107.2605447  69.1650217  30.2712573 108.7430671  69.1402516  30.5768589
 111.3534576  54.4323166  32.8208554 111.8503275  53.6793129  32.5009624
 110.5821557  54.4687483  32.2551763 119.2064333  60.1363532  34.4626845
 119.1954209  61.0188247  34.0920778 118.3381712  59.7835083  34.2681382
 110.7146829  69.2843601  38.8229685 111.4274801  69.9191066  38.7505587
 110.2236858  69.3807467  38.0069687 112.4364356  63.1894853  30.3946977
 111.5020635  63.3096316  30.2251681 112.6141025  62.2867320  30.1306987
 107.9369544  56.5740549  32.5480238 107.5667332  56.0211590  33.2361144
 108.4328637  55.9698683  31.9955238 115.8236908  59.0312173  30.9297011
 116.2897360  59.8640164  30.8557314 116.2744408  58.5657154  31.6342270
 105.7658743  67.0338044  39.6435256 106.4668202  67.6674527  39.7964650
 105.2953858  67.3752776  38.8830895 113.8913139  65.3755994  27.9283163
 114.1672983  65.2612589  28.8377037 113.0217637  64.9773479  27.8895336
 113.7953570  51.3992760  34.9687913 112.8816650  51.6296987  35.1370119
 114.2246672  51.4831204  35.8201945 113.5660029  59.5882652  37.4687807
 112.9131479  59.8358559  36.8140259 113.9440409  58.7746790  37.1350284
 110.5267203  69.6242345  31.5715977 110.7089597  68.8064001  32.0343729
 111.3500189  69.8410037  31.1340867 110.8609368  68.5510530  28.8331025
 111.3897135  68.0402985  28.2201187 111.1237588  68.2353060  29.6976558
 109.6147602  60.3302463  43.9553844 108.9388239  60.2296592  44.6256219
 110.4375236  60.1741676  44.4189841 101.3626461  66.5674399  36.5766359
 101.9479898  65.8218087  36.7094263 101.1651299  66.8778356  37.4603023
 104.2165116  69.6025647  31.5928801 103.5475491  70.0871774  31.1092841
 104.0777986  69.8494867  32.5072180  95.9544116  59.1379999  35.2970802
  95.9928215  58.6043590  36.0907920  95.4484408  58.6115205  34.6781779
 108.3570385  71.6369390  38.1911460 108.9088693  71.8001012  38.9560545
 108.6976578  72.2273828  37.5191484 103.3334878  53.9844540  38.7933344
 103.3976204  54.8459371  38.3810742 103.2701998  53.3718542  38.0605703
 102.8087150  56.0567673  42.4406379 103.4359189  55.6744750  43.0543903
 101.9515069  55.8381874  42.8062071 113.2081259  66.4630648  44.0460114
 113.7521163  67.0760606  43.5515069 112.6268104  67.0210226  44.5627127
  99.5852693  57.8644102  28.3724733  99.8806134  56.9554780  28.3191787
  98.6840729  57.8431841  28.0505736 111.4938772  69.5851366  35.1775142
 111.3689911  68.7841106  34.6686087 112.1517863  70.0797559  34.6889112
 103.1146940  55.9400098  34.3552282 102.3933526  56.5536066  34.2159755
 103.9040196  56.4757863  34.2768928 113.5573680  67.3860386  36.8054692
 112.6104016  67.2665737  36.7333019 113.9056453  66.4982884  36.8880953
 105.9173254  53.2754525  40.6292934 106.4407656  53.5216821  41.3919243
 105.6985587  54.1074560  40.2096071 101.3140535  55.5458199  28.4964059
 100.9853241  54.6655578  28.3139165 101.6679905  55.4905868  29.3840448
 110.5620114  67.1813102  33.0059044 110.4145076  66.2529809  33.1866614
 111.3873607  67.2033193  32.5216119 104.4282358  55.8331169  28.8639536
 104.7678430  56.3617090  28.1418145 104.8754478  56.1711575  29.6398103
 114.1654235  68.0041661  34.0923917 115.0900783  67.7984522  33.9548368
 113.9969539  67.7558062  35.0013258 107.1225799  54.2168220  38.3142604
 106.7822619  53.4176033  38.7163284 106.4164805  54.5169931  37.7419438
 107.7742271  51.3017532  36.7669927 108.5968340  50.8278010  36.6448818
 108.0180334  52.0808016  37.2668614 106.4150505  54.3305791  27.0632829
 107.1358868  54.7087043  26.5596546 105.7915809  55.0494668  27.1667807
 110.5581628  55.0350940  27.9991161 110.7745242  55.9175578  27.6979990
 110.0775695  54.6437153  27.2696803 105.2980849  57.9936653  34.5761906
 105.1525430  58.3076956  35.4686187 104.8206053  58.6121553  34.0232805
 107.1577232  54.9839201  34.6242796 107.1438801  54.0880294  34.2875093
 107.8749660  54.9909865  35.2581082 109.0103363  55.4176541  36.6695923
 108.7521141  56.3393612  36.6680253 108.4788403  55.0206976  37.3596387
 113.9549552  68.5227328  29.4486008 114.1286429  67.9573751  28.6959861
 114.4478443  69.3228223  29.2665498  99.7726512  60.5341997  37.5149567
  99.2279980  61.3101805  37.6469841 100.6505861  60.8812802  37.3568689
 106.5614128  53.8653581  29.8930366 106.6830039  52.9370227  30.0921253
 106.2716171  53.8792267  28.9808681 109.4305319  51.5508492  33.0297085
 109.4527015  51.6147825  32.0749065 109.8473378  50.7113000  33.2237592
 119.8088943  61.2863751  31.0676308 120.2520089  60.5371076  30.6695431
 118.9315453  61.2773888  30.6850040 114.9424724  67.8394093  26.5482907
 115.6375629  68.4600785  26.7670221 115.2847874  66.9889444  26.8235284
 100.5592533  59.6611894  40.4079724  99.8174269  59.8094529  40.9944354
 100.2385278  59.9220159  39.5446473 116.8416147  65.2893798  28.0770237
 117.3667471  65.6281071  27.3519557 116.7538500  64.3540813  27.8933372
 108.5036196  69.2027872  40.2060114 108.8123322  68.9577019  41.0782814
 109.3011678  69.4074510  39.7178984 108.5256808  71.3565781  32.4365491
 108.0861798  70.8642160  33.1298347 109.2764925  70.8138749  32.1957566
 101.0049147  67.5477322  32.4390119 101.8307167  67.2481094  32.0588762
 100.6543199  66.7784945  32.8879907 105.9730680  66.9003791  34.5087792
 105.3510690  66.2374496  34.2090020 106.6435547  66.9264922  33.8261440
  99.2057752  65.4663649  33.3979052  98.3689660  65.0385823  33.2163053
  99.1781398  65.6596092  34.3349843 106.0455208  55.3785579  44.1020298
 106.0943363  56.2547701  43.7198068 106.5877722  54.8362972  43.5291941
 116.5310053  65.9226702  43.3821435 115.7405597  65.9050841  42.8425935
 116.2943408  66.4614995  44.1370472 116.6507928  62.7719168  40.6954164
 116.7005933  62.6069176  41.6369687 116.5421852  61.9046427  40.3052045
 105.5344187  65.4507714  27.9846253 105.6832307  66.1343178  27.3312926
 106.3410631  65.4312804  28.4995709 113.9411691  58.7550096  42.0113471
 114.8421554  58.6156561  41.7197468 114.0159665  58.9204551  42.9511648
 108.2754496  56.1316951  40.8566657 107.4057806  56.4250517  40.5849245
 108.5113977  56.7157396  41.5773921 118.1526125  65.1916110  40.9396185
 117.8610934  65.5546090  41.7759646 117.5398257  64.4783118  40.7609517
 119.3521808  62.7568989  33.4598756 120.1868699  63.1958794  33.6236316
 119.4880936  62.2807643  32.6407001 116.4013314  60.3148724  39.4076243
 116.8767435  60.5076371  38.5995095 115.4778879  60.3707910  39.1619627
 103.2896820  61.4772891  28.9907322 103.0442862  60.5735221  29.1887532
 103.4592735  61.4790042  28.0486800 110.9793530  52.3496568  38.3732077
 111.4975474  53.0857595  38.0478566 110.6248663  52.6560561  39.2078836
 102.5592468  57.2101249  26.4893483 101.8661713  57.2845604  25.8333519
 102.3144220  56.4461593  27.0115000 111.2306124  48.7696850  33.8932974
 111.5107878  48.1020039  34.5193400 112.0156731  48.9625946  33.3807638
 109.0339593  67.9455844  25.4558000 108.4613560  68.5646031  25.0028472
 109.6072386  68.4955206  25.9897922 115.1014983  57.1914484  37.6404549
 116.0532405  57.2912582  37.6616773 114.9318433  56.3992753  38.1502633
 113.1229362  54.2770068  37.8263950 112.5279294  54.5575080  37.1310439
 112.8379059  54.7663969  38.5980691 112.2536852  68.2292994  26.5866582
 113.1867526  68.1638556  26.7899458 112.1660065  69.0649261  26.1281115
 114.8824869  67.5458865  23.5470530 114.8038501  67.2118728  24.4406288
 115.7034536  68.0380633  23.5462002 117.5803060  60.4120604  36.7546849
 117.5479380  59.4736605  36.9406532 118.1903684  60.4904641  36.0212674
 109.4186391  59.2816657  22.7974053 110.3645496  59.1522865  22.8662471
 109.0400636  58.5431319  23.2743481 117.7297549  57.2031647  36.8005132
 117.2136597  56.4190104  36.6135061 118.6137497  56.8750364  36.9651651
 115.3908276  50.9472663  32.7600945 115.1933097  50.6387751  33.6444276
 116.0007981  51.6734302  32.8898874 109.3025084  63.3334403  44.2574710
 110.2228093  63.5113002  44.4514756 109.2674667  62.3890449  44.1054409
 107.6029308  57.2066633  22.7328938 106.6960764  56.9099746  22.8091652
 107.8805289  56.9096452  21.8663224  98.5207249  58.5272997  33.1827984
  98.2010033  57.6738305  32.8902358  97.9740677  58.7421575  33.9385952
 102.2987156  61.2435438  36.8997491 102.5173166  62.1752546  36.9185525
 102.7112930  60.8843412  37.6852295 109.2191374  51.7503523  28.8873179
 108.4092102  51.4050608  29.2628425 109.9075791  51.4411067  29.4760791
 111.1481922  50.8281570  30.5097476 111.7012961  51.2477023  31.1687499
 111.3852009  49.9017318  30.5520432 107.1715022  56.8168644  46.2900240
 107.0711748  57.7663001  46.2212331 106.9536564  56.4886882  45.4176310
 106.3728093  54.0653569  22.8740917 107.2347257  54.3908467  23.1336734
 106.5578437  53.2785065  22.3613983  98.3895509  62.1475908  35.1521106
  97.6958980  61.7329861  34.6391060  99.1368500  62.1896445  34.5554525
 114.5260729  52.9382095  30.0176140 113.9459398  53.5966899  29.6354193
 114.2596662  52.1159440  29.6063558 112.9764296  52.3387153  32.2197460
 113.4764074  52.4503687  31.4111779 113.6199904  52.0348206  32.8598269
 107.0346292  60.2465782  45.1065301 106.5513373  61.0466143  45.3129190
 107.1207231  60.2573727  44.1532745 100.3032251  62.0794162  33.0287121
 100.2802939  62.1781849  32.0769004 100.6132888  62.9259313  33.3504287
 102.9619629  64.1370317  37.1433735 103.9162883  64.1054259  37.0763667
 102.7632153  63.6760941  37.9583961 103.5519011  62.7071433  39.7104533
 104.3711900  63.2015512  39.7339370 103.8255819  61.7903401  39.6822100
 113.3085607  55.0982185  29.0732488 112.4211462  55.3831836  28.8552683
 113.7239597  54.9375949  28.2259765 116.6600144  55.1228706  32.7886828
 117.4360534  55.6125159  33.0611444 115.9348278  55.5486761  33.2458697
 119.0972702  55.8356326  33.8460768 119.6917193  55.5952062  33.1354076
 119.1699286  55.1163456  34.4734305 101.3169858  69.6789937  34.1603933
 101.1824326  68.9190338  33.5941931 100.9001920  70.4030836  33.6932722
 112.4528821  64.8626860  23.1680508 113.1564671  65.0676863  23.7838164
 111.7291470  65.4303622  23.4329592 113.2826631  60.6136721  29.2882779
 113.2261833  61.0705273  28.4490411 113.8354974  59.8527406  29.1105621
 117.0931437  56.4026453  30.1132898 116.8368371  56.0023089  30.9441106
 116.4684305  57.1170247  29.9883037 104.4738984  70.5759254  34.3722376
 104.3571368  71.5204686  34.2701066 103.6531430  70.2732815  34.7608175
 114.3615518  65.3009389  25.2178968 115.1961122  64.8690588  25.0356443
 114.1999861  65.1291403  26.1455863 114.0161410  61.8041503  26.5835308
 113.9610214  61.6385774  25.6423752 113.3907466  62.5117536  26.7397497
  98.8053925  57.0409567  40.4096730  99.4512789  56.5308521  40.8983955
  98.5971077  57.7778249  40.9840155 111.3307318  64.1090415  45.9088870
 112.1998477  64.2831067  45.5475505 110.8514069  64.9284831  45.7864600
 107.3257536  51.3049612  26.1620626 107.3136206  52.2491452  26.3188897
 108.2180958  51.1219757  25.8680087 105.4993498  71.2287516  37.5878304
 106.4020745  71.2611126  37.9044799 105.2730868  70.2987966  37.6024640
 107.2547100  69.9818502  34.2488383 106.3042731  69.9820364  34.1352755
 107.5579586  69.2351237  33.7324417 111.1409655  47.8992388  30.4166563
 110.3742051  47.3450875  30.5623245 111.5520360  47.9714257  31.2780715
 103.1451416  54.1877184  44.5071744 104.0082878  53.8313989  44.7175069
 102.5716827  53.8491079  45.1947148 115.6576315  77.6241945  31.2392561
 115.0941181  77.5331882  30.4708849 115.5428710  76.8041849  31.7195053
 120.2809283  76.9241320  41.2081875 120.2697923  76.5294119  40.3362379
 120.4429922  76.1907393  41.8015647 113.2040747  79.1193137  34.0776781
 113.9962039  78.7783961  33.6623081 113.4437397  79.2288112  34.9978935
 115.1631501  78.3802050  26.9494160 115.9362377  77.8331037  26.8107036
 115.5156900  79.2446299  27.1608621 117.0016544  79.7078432  40.1561059
 116.7106410  80.6124063  40.0407726 117.6373528  79.7494960  40.8705129
 117.9272751  77.0855281  36.7462419 118.5236323  76.8611303  36.0319382
 117.9847722  76.3440026  37.3487867 117.4997779  74.5394716  24.5812610
 117.7523300  74.0176237  23.8196073 116.5622338  74.3760861  24.6839294
 117.2194068  76.4422822  26.7836985 117.1030326  75.7667725  27.4518069
 117.3296328  75.9555196  25.9669138 119.5625609  75.9032969  30.4883674
 119.1983816  75.3763590  31.1996596 120.4192725  75.5131438  30.3150160
 119.2031096  70.9322869  25.4845023 119.3705498  71.8003105  25.8515494
 119.0128265  71.0950150  24.5606312 115.4118910  75.8453644  33.1847557
 114.4869407  75.7129859  33.3925249 115.6603324  76.6247864  33.6817500
 119.1820317  73.3880526  26.4691690 119.0619942  73.8337577  27.3077170
 118.4872905  73.7365844  25.9105228 112.7727721  75.4886918  34.0191347
 112.9020103  75.7421397  34.9330758 112.0925173  76.0814626  33.6996002
 116.9427209  86.1584168  30.1181821 116.8651238  87.1091993  30.1970301
 116.3388852  85.8130040  30.7756747 119.4344438  73.3312033  42.7743188
 118.6577773  73.8905954  42.7646052 120.0735002  73.8168816  43.2958058
 117.6890811  76.1397487  42.3361155 118.4305495  76.6782531  42.0595978
 116.9827796  76.7663776  42.4932706 119.5177220  73.2199234  38.3066873
 120.3638416  73.6438648  38.4501522 119.4575858  72.5632858  39.0005436
 119.0402927  78.5802226  31.9535690 119.5041272  78.8589929  31.1640313
 118.7759725  77.6785671  31.7708781 115.9327008  78.1273707  34.8915453
 116.5028365  78.5560976  34.2532938 116.5235120  77.8456292  35.5899639
 117.9771813  74.7025378  28.7625255 118.6795856  75.1546422  29.2299182
 117.6452441  74.0609197  29.3905148 116.4252175  73.2937135  43.1376465
 115.7950835  73.9753416  43.3711861 116.3188262  73.1820217  42.1929603
 111.7197147  72.9608931  34.0642389 110.9296201  73.2166460  33.5882499
 112.2108394  73.7757269  34.1694429 113.6711892  73.3253510  31.0225866
 112.8743056  73.4372204  31.5409361 113.4437485  73.6640162  30.1566756
 119.5017560  79.8498213  38.9708380 119.5661992  80.3118621  39.8066552
 118.7928484  79.2195578  39.0990690 110.0034850  73.2139421  36.4957380
 110.2542888  74.0986431  36.7614956 110.5394398  73.0344023  35.7232471
 119.2165578  81.5166321  28.8387360 119.0811252  82.3617857  29.2672208
 119.7575390  81.7185599  28.0753294 115.7032917  67.5957901  45.5001716
 115.3099863  67.0424099  46.1749360 116.5199058  67.9068479  45.8908233
 112.6694975  79.0341759  29.4115286 113.1819496  79.8285009  29.5620850
 113.3217688  78.3368049  29.3448887 114.4789860  82.1507515  31.4938039
 114.6556488  83.0725480  31.3059023 115.2746693  81.8365934  31.9232419
 118.6200878  69.0115780  43.0921972 119.3610592  69.6122933  43.0126435
 118.8518801  68.2693418  42.5340015 113.7642216  74.1972147  41.3700202
 113.6495731  73.2957404  41.6707301 112.9086734  74.4435844  41.0185018
 115.6021175  83.6685689  37.4948381 116.1528600  83.5402752  36.7225375
 114.7632651  83.9680578  37.1443274 119.3988346  79.9336817  41.8392612
 119.9316683  79.1725105  41.6091920 118.8702427  79.6410469  42.5816767
 110.6343892  77.3630413  30.1874856 111.4719114  77.7727422  29.9708564
 110.8122159  76.4229855  30.1575050 117.8897467  67.4940268  34.3401669
 118.7550464  67.2983076  33.9807558 117.9574976  67.2650619  35.2671026
 115.4959787  69.7242476  31.7118036 116.0703538  69.5017657  30.9791229
 116.0830769  69.7931170  32.4646637 115.8229374  71.7546937  25.7313921
 114.9866686  72.0921623  26.0523196 115.6834143  71.6195916  24.7941058
 117.7982454  66.5983725  30.4393105 117.1446867  66.2832742  29.8149720
 117.7562928  65.9759465  31.1652928 118.9093659  76.8803020  22.3546397
 118.0020721  76.6492273  22.5537546 119.4064691  76.0840639  22.5420379
 120.0881893  76.9815614  26.8770387 119.1793112  76.6974647  26.9742857
 120.1176976  77.4014693  26.0173694 110.6570063  74.7021129  30.8585590
 110.4594463  74.1090489  30.1336656 110.1016727  74.3973339  31.5761528
 118.6366787  74.5944235  32.9780183 118.6915396  73.6418071  32.9022659
 117.8257989  74.7503674  33.4621481 116.5759146  73.2121295  30.7370562
 115.7627012  73.5115465  31.1435754 117.0718141  72.8176984  31.4545044
 118.7267724  83.2079052  32.6704826 118.6843903  83.4339898  31.7413358
 119.6430423  82.9742426  32.8190627 116.0673221  70.7839650  36.3531797
 116.7072601  70.6428409  35.6554760 115.2350752  70.4974164  35.9770398
 116.8433525  80.0842081  32.4666789 117.6374124  79.5892401  32.2649364
 116.1325218  79.5559944  32.1034495 113.1516289  74.2285162  28.5426542
 112.2213877  74.1669618  28.7596504 113.2473761  73.7061115  27.7463183
 113.0701838  70.7539975  31.1304783 113.3308655  71.6685309  31.0213944
 113.8919010  70.2864418  31.2801396 114.5426763  72.1677732  38.3003608
 115.2149816  71.9595095  37.6516257 113.7156550  71.9699818  37.8608840
 119.4204801  80.6571103  36.1464626 119.2815887  80.2889887  37.0190564
 118.6319397  81.1718742  35.9748584 120.0152953  85.7580199  27.4890163
 120.1904709  85.2868242  28.3035785 119.3285741  86.3845965  27.7171423
 114.9454260  75.4420335  39.0606045 114.8074058  74.7100574  39.6617584
 115.8559184  75.3529236  38.7790233 117.5736561  75.1540295  38.5489725
 118.2836179  74.5133487  38.5076343 117.5305869  75.4053190  39.4715905
 116.2865495  72.1405513  40.3685364 115.7502852  71.6896251  41.0206960
 115.6982203  72.2751422  39.6255828 114.5814038  88.9069562  34.2630023
 114.8210637  89.5388086  34.9409041 113.7383235  88.5557602  34.5495382
 115.6967754  71.5994164  22.9311828 114.8197220  71.4782965  22.5674074
 116.1725507  70.8080242  22.6790716 107.2169894  76.3871324  33.0253335
 107.9040934  76.0733054  32.4374350 107.0618023  77.2912688  32.7520586
 112.0204616  71.2761520  37.4538359 111.9362805  70.6687190  36.7188769
 111.1987323  71.7670539  37.4547855 119.0941900  84.7148684  36.6671527
 119.0212072  85.5203656  37.1790831 118.6519293  84.9140650  35.8419548
 118.8831680  83.9520454  30.1774348 118.0999202  84.4942135  30.2712573
 119.5824425  84.4694434  30.5768589 118.7763299  71.9032467  32.5480238
 118.4061086  71.3503507  33.2361144 119.2722391  71.2990600  31.9955238
 116.6052497  82.3629962  39.6435256 117.3061957  82.9966445  39.7964650
 116.1347612  82.7044693  38.8830895 112.2020215  81.8966317  36.5766359
 112.7873652  81.1510005  36.7094263 112.0045054  82.2070274  37.4603023
 115.0558871  84.9317564  31.5928801 114.3869246  85.4163692  31.1092841
 114.9171740  85.1786785  32.5072180 106.7937870  74.4671917  35.2970802
 106.8321970  73.9335508  36.0907920 106.2878163  73.9407123  34.6781779
 119.1964139  86.9661308  38.1911460 119.7482447  87.1292929  38.9560545
 119.5370333  87.5565746  37.5191484 114.1728632  69.3136458  38.7933344
 114.2369959  70.1751289  38.3810742 114.1095753  68.7010459  38.0605703
 113.6480905  71.3859590  42.4406379 114.2752944  71.0036668  43.0543903
 112.7908824  71.1673792  42.8062071 110.4246448  73.1936019  28.3724733
 110.7199889  72.2846698  28.3191787 109.5234483  73.1723759  28.0505736
 113.9540695  71.2692016  34.3552282 113.2327280  71.8827984  34.2159755
 114.7433950  71.8049781  34.2768928 116.7567008  68.6046442  40.6292934
 117.2801410  68.8508739  41.3919243 116.5379341  69.4366477  40.2096071
 112.1534289  70.8750117  28.4964059 111.8246995  69.9947496  28.3139165
 112.5073660  70.8197786  29.3840448 115.2676112  71.1623087  28.8639536
 115.6072185  71.6909008  28.1418145 115.7148233  71.5003493  29.6398103
 117.9619553  69.5460138  38.3142604 117.6216374  68.7467951  38.7163284
 117.2558560  69.8461848  37.7419438 118.6136025  66.6309450  36.7669927
 119.4362094  66.1569928  36.6448818 118.8574089  67.4099934  37.2668614
 117.2544260  69.6597708  27.0632829 117.9752622  70.0378961  26.5596546
 116.6309564  70.3786585  27.1667807 116.1374604  73.3228571  34.5761906
 115.9919185  73.6368874  35.4686187 115.6599807  73.9413471  34.0232805
 117.9970987  70.3131119  34.6242796 117.9832555  69.4172212  34.2875093
 118.7143415  70.3201782  35.2581082 119.8497117  70.7468459  36.6695923
 119.5914895  71.6685529  36.6680253 119.3182158  70.3498893  37.3596387
 110.6120266  75.8633915  37.5149567 110.0673734  76.6393723  37.6469841
 111.4899616  76.2104719  37.3568689 117.4007883  69.1945499  29.8930366
 117.5223794  68.2662145  30.0921253 117.1109925  69.2084185  28.9808681
 111.3986288  74.9903811  40.4079724 110.6568024  75.1386447  40.9944354
 111.0779032  75.2512077  39.5446473 119.3429951  84.5319789  40.2060114
 119.6517077  84.2868936  41.0782814 120.1405433  84.7366428  39.7178984
 119.3650563  86.6857699  32.4365491 118.9255553  86.1934078  33.1298347
 120.1158680  86.1430667  32.1957566 111.8442902  82.8769240  32.4390119
 112.6700921  82.5773012  32.0588762 111.4936954  82.1076862  32.8879907
 116.8124435  82.2295708  34.5087792 116.1904444  81.5666413  34.2090020
 117.4829302  82.2556840  33.8261440 110.0451507  80.7955566  33.3979052
 109.2083415  80.3677741  33.2163053 110.0175152  80.9888010  34.3349843
 116.8848962  70.7077496  44.1020298 116.9337118  71.5839619  43.7198068
 117.4271476  70.1654889  43.5291941 116.3737942  80.7799632  27.9846253
 116.5226062  81.4635096  27.3312926 117.1804385  80.7604722  28.4995709
 119.1148251  71.4608869  40.8566657 118.2451560  71.7542435  40.5849245
 119.3507731  72.0449314  41.5773921 114.1290575  76.8064809  28.9907322
 113.8836617  75.9027139  29.1887532 114.2986489  76.8081960  28.0486800
 113.3986222  72.5393167  26.4893483 112.7055467  72.6137522  25.8333519
 113.1537974  71.7753510  27.0115000 119.8733347  83.2747762  25.4558000
 119.3007314  83.8937949  25.0028472 120.4466141  83.8247124  25.9897922
 118.4423063  72.5358551  22.7328938 117.5354518  72.2391664  22.8091652
 118.7199044  72.2388369  21.8663224 109.3601003  73.8564915  33.1827984
 109.0403788  73.0030223  32.8902358 108.8134431  74.0713493  33.9385952
 113.1380911  76.5727356  36.8997491 113.3566921  77.5044463  36.9185525
 113.5506685  76.2135330  37.6852295 118.0108776  72.1460561  46.2900240
 117.9105503  73.0954918  46.2212331 117.7930318  71.8178800  45.4176310
 117.2121847  69.3945486  22.8740917 118.0741011  69.7200385  23.1336734
 117.3972192  68.6076982  22.3613983 109.2289263  77.4767826  35.1521106
 108.5352735  77.0621779  34.6391060 109.9762254  77.5188363  34.5554525
 117.8740046  75.5757700  45.1065301 117.3907128  76.3758060  45.3129190
 117.9600985  75.5865645  44.1532745 111.1426006  77.4086080  33.0287121
 111.1196694  77.5073767  32.0769004 111.4526642  78.2551231  33.3504287
 113.8013384  79.4662235  37.1433735 114.7556637  79.4346177  37.0763667
 113.6025907  79.0052859  37.9583961 114.3912766  78.0363351  39.7104533
 115.2105655  78.5307430  39.7339370 114.6649573  77.1195319  39.6822100
 112.1563612  85.0081854  34.1603933 112.0218080  84.2482255  33.5941931
 111.7395675  85.7322754  33.6932722 115.3132738  85.9051171  34.3722376
 115.1965122  86.8496604  34.2701066 114.4925185  85.6024733  34.7608175
 109.6447680  72.3701485  40.4096730 110.2906544  71.8600439  40.8983955
 109.4364831  73.1070166  40.9840155 118.1651290  66.6341529  26.1620626
 118.1529960  67.5783369  26.3188897 119.0574712  66.4511675  25.8680087
 116.3387252  86.5579433  37.5878304 117.2414499  86.5903043  37.9044799
 116.1124622  85.6279884  37.6024640 118.0940854  85.3110420  34.2488383
 117.1436485  85.3112281  34.1352755 118.3973341  84.5643154  33.7324417
 113.9845171  69.5169102  44.5071744 114.8476633  69.1605907  44.7175069
 113.4110582  69.1782997  45.1947148 118.0563648  91.7163241  33.0253335
 118.7434688  91.4024972  32.4374350 117.9011777  92.6204606  32.7520586
 117.6331625  89.7963835  35.2970802 117.6715724  89.2627426  36.0907920
 117.1271917  89.2699040  34.6781779 120.1994758  89.1856832  33.1827984
 119.8797542  88.3322140  32.8902358 119.6528186  89.4005410  33.9385952
  73.5852192   1.8478620  16.8427127  73.5076222   2.7986445  16.9215608
  72.9813836   1.5024492  17.5002054  71.2239022   4.5964014  20.9875329
  71.4635620   5.2282538  21.6654348  70.3808218   4.2452054  21.2740689
  75.8389122   2.6555760  24.9156766  76.3907431   2.8187381  25.6805852
  76.1795316   3.2460198  24.2436791  68.7988596   0.6976306  20.8849240
  68.6643064  -0.0623293  20.3187238  68.3820658   1.4217206  20.4178029
  71.9557722   1.5945623  21.0967682  71.8390106   2.5391056  20.9946373
  71.1350168   1.2919185  21.4853482  72.9812236   2.2473885  24.3123611
  73.8839482   2.2797495  24.6290106  72.7549606   1.3174336  24.3269947
  83.1395053   8.6428315  17.9637867  82.5759918   8.5518252  17.1954155
  83.0247448   7.8228219  18.4440360  87.7628020   7.9427690  27.9327182
  87.7516661   7.5480488  27.0607686  87.9248660   7.2093762  28.5260953
  80.6859485  10.1379506  20.8022088  81.4780777   9.7970331  20.3868387
  80.9256135  10.2474481  21.7224241  82.6450239   9.3988419  13.6739467
  83.4181115   8.8517407  13.5352343  82.9975638  10.2632669  13.8853928
  84.4835282  10.7264802  26.8806366  84.1925148  11.6310433  26.7653032
  85.1192266  10.7681329  27.5950436  85.4091488   8.1041650  23.4707726
  86.0055061   7.8797673  22.7564689  85.4666460   7.3626396  24.0733174
  89.4425167  10.4126217  23.8756160  89.1425890  11.3151256  23.7671967
  89.0976226  10.1458400  24.7277313  82.8937648   6.8640014  19.9092864
  81.9688145   6.7316228  20.1170556  83.1422061   7.6434233  20.4062807
  80.2546459   6.5073288  20.7436653  80.3838840   6.7607767  21.6576065
  79.5743910   7.1000996  20.4241308  84.4245946  17.1770538  16.8427127
  84.3469976  18.1278363  16.9215608  83.8207590  16.8316410  17.5002054
  85.1709549   7.1583856  29.0606461  85.9124233   7.6968900  28.7841285
  84.4646534   7.7850145  29.2178013  90.6464888   9.3012997  27.6578623
  91.0548244   8.8595407  26.9133255  89.9242150   8.7265624  27.9112816
  90.9693703   9.8614187  21.4130912  90.3402565  10.0259902  20.7106980
  90.5819365  10.2755797  22.1841876  86.5221665   9.5988596  18.6780997
  86.9860010   9.8776298  17.8885619  86.2578463   8.6972040  18.4954087
  83.4145746   9.1460077  21.6160760  83.9847103   9.5747345  20.9778245
  84.0053858   8.8642662  22.3144946  79.2015885   3.9795301  20.7887695
  78.4114939   4.2352829  20.3127806  79.6927132   4.7943638  20.8939736
  93.2179694  11.3200540  23.5392976  94.0397138  10.9180727  23.2575658
  93.2142097  11.2168774  24.4909092  81.1530630   4.3439880  17.7471172
  80.3561793   4.4558574  18.2654668  80.9256222   4.6826532  16.8812063
  86.9836298  10.8684583  25.6953687  87.0480730  11.3304990  26.5311859
  86.2747222  10.2381948  25.8235997  77.4853588   4.2325791  23.2202686
  77.7361626   5.1172801  23.4860262  78.0213136   4.0530393  22.4477778
  86.6984315  12.5352691  15.5632667  86.5629990  13.3804226  15.9917515
  87.2394128  12.7371968  14.7998601  80.1513713  10.0528129  16.1360592
  80.6638233  10.8471379  16.2866157  80.8036426   9.3554419  16.0694194
  81.9608597  13.1693885  18.2183345  82.1375226  14.0911850  18.0304329
  82.7565431  12.8552304  18.6477725  81.2460954   5.2158517  28.0945509
  81.1314469   4.3143774  28.3952607  80.3905472   5.4622213  27.7430325
  88.3252792  13.1576257  29.6933009  87.8816646  12.3712636  29.3753914
  88.9870005  13.3455408  29.0276900  83.0839913  14.6872059  24.2193688
  83.6347338  14.5589122  23.4470682  82.2451389  14.9866948  23.8688581
  90.4234030  13.4379057  27.7214410  90.4052505  14.2587938  27.2294680
  91.3453950  13.3133132  27.9464552  86.8807084  10.9523186  28.5637919
  87.4135421  10.1911475  28.3337227  86.3521165  10.6596838  29.3062073
  78.1162630   8.3816783  16.9120163  78.9537852   8.7913791  16.6953870
  78.2940897   7.4416225  16.8820357  88.2459797  10.0809179  16.0756731
  87.7181158   9.3461938  15.7629968  87.7447299  10.8583855  15.8296699
  89.2980476  16.6086896  11.9988390  88.6242175  16.9118593  12.6073348
  89.6846298  17.4115977  11.6493847  92.8019898  11.6108574  17.3706862
  92.3482225  10.7699483  17.4272052  92.1713864  12.2469972  17.7081642
  91.2452837  13.4485070  18.3056680  91.5375811  14.0090127  17.5869045
  91.7551458  13.7413631  19.0609839  78.1388801   5.7207498  17.5830896
  77.9413201   5.1276859  16.8581963  77.5835465   5.4159708  18.3006835
  86.2086462  14.2265421  19.3950133  86.1662641  14.4526268  18.4658665
  87.1249161  13.9928796  19.5435934  95.4119213   9.8844452  22.0091363
  95.8455719   9.7919741  22.8574417  96.1250793   9.8601952  21.3711379
  84.3252263  11.1028450  19.1912096  85.1192861  10.6078770  18.9894671
  83.6143955  10.5746313  18.8279801  89.1447107  13.4846546  23.5424463
  89.1984130  14.0537482  24.3102179  88.2761889  13.6548431  23.1778500
  80.6335026   5.2471532  15.2671848  79.7032615   5.1855988  15.4841810
  80.7292498   4.7247485  14.4708490  91.3349871  10.0774895  30.1165129
  91.1835377   9.8485447  29.1995212  91.3254550  11.0345497  30.1296474
  88.1035207   7.6506808  25.1011395  89.0327267   7.8017968  24.9280362
  87.6826237   7.7390829  24.2460042  86.9023539  11.6757472  22.8709933
  86.7634625  11.3076257  23.7435871  86.1138135  12.1905112  22.6993890
  87.4971691  16.7766569  14.2135469  87.6723447  16.3054612  15.0281092
  86.8104479  17.4032335  14.4416730  88.4528754  11.0539075  20.2598770
  88.1178587  11.0139845  21.1556420  87.9532700  10.3883791  19.7869181
  82.4272998   6.4606705  25.7851352  82.2892796   5.7286944  26.3862891
  83.3377922   6.3715605  25.5035539  93.0442077  13.1094018  28.1941610
  92.9854624  12.4253238  27.5272194  93.4461596  13.8513008  27.7422236
  82.0632776  19.9255932  20.9875329  82.3029374  20.5574456  21.6654348
  81.2201973  19.5743972  21.2740689  93.0459485  11.0733602  26.4255590
  92.1586263  10.7359523  26.5481989  93.6158036  10.3416633  26.6624356
  74.6988632   7.4057693  19.7498642  75.3859672   7.0919423  19.1619657
  74.5436760   8.3099058  19.4765893  86.5760638  15.7335054  23.3916833
  86.5030810  16.5390025  23.9036138  86.1338031  15.9327020  22.5664855
  86.3650418  14.9706824  16.9019655  85.5817940  15.5128504  16.9957879
  87.0643163  15.4880804  17.3013896  89.0359322  15.6321888  25.5474992
  89.7487294  16.2669353  25.4750894  88.5449350  15.7285754  24.7314994
  84.0871235  13.3816331  26.3680563  84.7880695  14.0152814  26.5209957
  83.6166350  13.7231063  25.6076202  88.8479695  15.9720632  18.2961284
  89.0302089  15.1542288  18.7589036  89.6712681  16.1888324  17.8586173
  89.1821860  14.8988817  15.5576332  89.7109627  14.3881272  14.9446494
  89.4450080  14.5831347  16.4221865  79.6838953  12.9152687  23.3011666
  80.2692390  12.1696374  23.4339570  79.4863792  13.2256643  24.1848329
  82.5377608  15.9503934  18.3174108  81.8687984  16.4350062  17.8338148
  82.3990478  16.1973154  19.2317486  74.2756608   5.4858287  22.0216109
  74.3140707   4.9521877  22.8153227  73.7696901   4.9593492  21.4027086
  86.6782877  17.9847677  24.9156766  87.2301185  18.1479299  25.6805852
  87.0189070  18.5752115  24.2436791  91.5293751  12.8108935  30.7705421
  92.0733655  13.4238893  30.2760376  90.9480596  13.3688513  31.2872434
  77.9065185   4.2122389  15.0970040  78.2018627   3.3033067  15.0437094
  77.0053221   4.1910128  14.7751042  89.8151264  15.9329653  21.9020448
  89.6902404  15.1319393  21.3931394  90.4730355  16.4275846  21.4134418
  91.8786173  13.7338673  23.5299999  90.9316508  13.6144024  23.4578325
  92.2268946  12.8461171  23.6126260  88.8832606  13.5291389  19.7304351
  88.7357568  12.6008097  19.9111921  89.7086099  13.5511480  19.2461426
  92.4866728  14.3519948  20.8169224  93.4113275  14.1462809  20.6793675
  92.3182031  14.1036349  21.7258565  92.2762044  14.8705615  16.1731315
  92.4498922  14.3052038  15.4205167  92.7690935  15.6706510  15.9910805
  78.0939004   6.8820285  24.2394874  77.5492472   7.6580092  24.3715148
  78.9718354   7.2291089  24.0813995  78.8805026   6.0090181  27.1325031
  78.1386762   6.1572816  27.7189661  78.5597770   6.2698446  26.2691780
  86.8248688  15.5506159  26.9305421  87.1335815  15.3055306  27.8028120
  87.6224170  15.7552797  26.4424291  86.8469300  17.7044069  19.1610797
  86.4074291  17.2120447  19.8543654  87.5977417  17.1617036  18.9202872
  79.3261639  13.8955610  19.1635425  80.1519659  13.5959381  18.7834069
  78.9755691  13.1263232  19.6125214  84.2943173  13.2482078  21.2333099
  83.6723182  12.5852783  20.9335327  84.9648039  13.2743210  20.5506747
  77.5270244  11.8141936  20.1224359  76.6902153  11.3864110  19.9408360
  77.4993890  12.0074379  21.0595150  94.8522546  12.2704989  30.1066742
  94.0618089  12.2529128  29.5671241  94.6155900  12.8093283  30.8615779
  83.8556679  11.7986001  14.7091559  84.0044800  12.4821465  14.0558232
  84.6623123  11.7791091  15.2241015  96.4738618  11.5394397  27.6641492
  96.1823426  11.9024377  28.5004953  95.8610749  10.8261405  27.4854824
  81.6109312   7.8251179  15.7152628  81.3655354   6.9213509  15.9132838
  81.7805227   7.8268329  14.7732106  87.3552085  14.2934132  12.1803307
  86.7826052  14.9124319  11.7273779  87.9284879  14.8433493  12.7143229
  87.6237576   9.6812690  30.9820016  88.5440585   9.8591289  31.1760063
  87.5887159   8.7368736  30.8299716  76.8419741   4.8751284  19.9073291
  76.5222525   4.0216592  19.6147665  76.2953169   5.0899862  20.6631258
  80.6199649   7.5913725  23.6242797  80.8385658   8.5230833  23.6430831
  81.0325422   7.2321699  24.4097601  76.7108001   8.4954196  21.8766413
  76.0171472   8.0808148  21.3636367  77.4580992   8.5374732  21.2799831
  85.3558784   6.5944070  31.8310608  84.8725866   7.3944430  32.0374497
  85.4419723   6.6052015  30.8778052  78.6244743   8.4272449  19.7532427
  78.6015432   8.5260137  18.8014311  78.9345380   9.2737600  20.0749594
  81.2832121  10.4848604  23.8679042  82.2375375  10.4532547  23.8008973
  81.0844645  10.0239228  24.6829268  81.8731503   9.0549720  26.4349840
  82.6924392   9.5493799  26.4584677  82.1468311   8.1381689  26.4067407
  79.6382350  16.0268224  20.8849240  79.5036818  15.2668625  20.3187238
  79.2214412  16.7509124  20.4178029  82.7951476  16.9237541  21.0967682
  82.6783860  17.8682973  20.9946373  81.9743922  16.6211102  21.4853482
  89.6519810  10.4568702  32.6334177  90.5210970  10.6309354  32.2720812
  89.1726561  11.2763119  32.5109906  83.8205990  17.5765803  24.3123611
  84.7233237  17.6089413  24.6290106  83.5943360  16.6466254  24.3269947
  85.5759592  16.3296789  20.9733689  84.6255223  16.3298651  20.8598062
  85.8792078  15.5829524  20.4569724 101.3112286  22.1657328  22.0379452
 101.9490696  22.0464075  21.3342792 101.1933129  23.1138172  22.0967404
  98.1201992  22.1184756  21.9740977  97.7820503  22.0025821  21.0861511
  98.9891760  21.7175921  21.9541983  93.9788808  23.9720232  17.9637867
  93.4153673  23.8810169  17.1954155  93.8641203  23.1520137  18.4440360
  98.6021775  23.2719608  27.9327182  98.5910416  22.8772406  27.0607686
  98.7642414  22.5385680  28.5260953  91.5253240  25.4671424  20.8022088
  92.3174531  25.1262248  20.3868387  91.7649890  25.5766399  21.7224241
  93.4843994  24.7280337  13.6739467  94.2574870  24.1809324  13.5352343
  93.8369392  25.5924586  13.8853928  95.3229036  26.0556719  26.8806366
  95.0318902  26.9602350  26.7653032  95.9586020  26.0973247  27.5950436
  96.2485243  23.4333568  23.4707726  96.8448815  23.2089590  22.7564689
  96.3060214  22.6918313  24.0733174  97.8838101  22.2511256  17.2128981
  97.5196308  21.7241877  17.9241902  98.7405217  21.8609725  17.0395466
 100.2818921  25.7418135  23.8756160  99.9819644  26.6443174  23.7671967
  99.9369981  25.4750318  24.7277313  93.7331403  22.1931932  19.9092864
  92.8081899  22.0608146  20.1170556  93.9815816  22.9726151  20.4062807
  91.0940214  21.8365205  20.7436653  91.2232595  22.0899684  21.6576065
  90.4137665  22.4292913  20.4241308  95.2639701  32.5062455  16.8427127
  95.1863731  33.4570280  16.9215608  94.6601345  32.1608328  17.5002054
  97.7556931  19.6790321  29.4988494  96.9790265  20.2384241  29.4891359
  98.3947494  20.1647104  30.0203364  96.0103303  22.4875774  29.0606461
  96.7517987  23.0260818  28.7841285  95.3040289  23.1142063  29.2178013
 101.4858643  24.6304914  27.6578623 101.8941999  24.1887325  26.9133255
 100.7635904  24.0557542  27.9112816  97.8389713  19.5677521  25.0312180
  98.6850908  19.9916935  25.1746829  97.7788350  18.9111146  25.7250743
 101.8087457  25.1906105  21.4130912 101.1796320  25.3551819  20.7106980
 101.4213119  25.6047715  22.1841876 100.9889158  17.2281890  26.6893353
 100.7450090  17.9823950  26.1527629 101.2649089  17.6067237  27.5240600
 102.9427621  23.7720502  25.3670619 103.1544516  24.4152262  24.6905000
 102.8957369  22.9382819  24.8992549 100.5453850  16.3838323  22.2707191
  99.6838329  16.6819576  22.5623929 100.5716284  16.6008722  21.3388224
  97.3615419  24.9280513  18.6780997  97.8253765  25.2068216  17.8885619
  97.0972217  24.0263958  18.4954087  94.2539500  24.4751995  21.6160760
  94.8240857  24.9039263  20.9778245  94.8447612  24.1934579  22.3144946
  96.2984305  21.0503666  15.4870562  97.0008349  21.5024709  15.9544488
  95.9664934  20.4087484  16.1150455  94.7464667  19.6415422  29.8621771
  94.1163327  20.3231703  30.0957168  94.6400755  19.5298504  28.9174910
  90.0409639  19.3087218  20.7887695  89.2508693  19.5644747  20.3127806
  90.5320887  20.1235556  20.8939736 104.0573449  26.6492457  23.5392976
 104.8790893  26.2472645  23.2575658 104.0535852  26.5460692  24.4909092
  91.9924385  19.6731797  17.7471172  91.1955548  19.7850492  18.2654668
  91.7649977  20.0118450  16.8812063  97.8230052  26.1976501  25.6953687
  97.8874485  26.6596908  26.5311859  97.1140976  25.5673866  25.8235997
  88.3247342  19.5617709  23.2202686  88.5755381  20.4464719  23.4860262
  88.8606891  19.3822310  22.4477778  97.5378070  27.8644608  15.5632667
  97.4023745  28.7096144  15.9917515  98.0787882  28.0663886  14.7998601
  94.0245410  13.9436188  32.2247022  93.6312355  13.3902387  32.8994667
  94.8411550  14.2546767  32.6153540  90.9907467  25.3820046  16.1360592
  91.5031988  26.1763296  16.2866157  91.6430180  24.6846337  16.0694194
  92.8002352  28.4985802  18.2183345  92.9768980  29.4203767  18.0304329
  93.5959185  28.1844222  18.6477725  96.9413371  15.3594067  29.8167279
  97.6823084  15.9601220  29.7371741  97.1731293  14.6171705  29.2585321
  92.0854709  20.5450434  28.0945509  91.9708224  19.6435692  28.3952607
  91.2299226  20.7914131  27.7430325  99.1646546  28.4868175  29.6933009
  98.7210400  27.7004553  29.3753914  99.8263760  28.6747325  29.0276900
  93.9233667  30.0163976  24.2193688  94.4741093  29.8881040  23.4470682
  93.0845143  30.3158865  23.8688581 101.2627784  28.7670975  27.7214410
 101.2446260  29.5879856  27.2294680 102.1847704  28.6425050  27.9464552
  97.7200838  26.2815104  28.5637919  98.2529175  25.5203392  28.3337227
  97.1914920  25.9888756  29.3062073  88.9556384  23.7108701  16.9120163
  89.7931606  24.1205709  16.6953870  89.1334652  22.7708143  16.8820357
  96.2109960  13.8418555  21.0646976  97.0762956  13.6461364  20.7052865
  96.2787469  13.6128907  21.9916332  99.0853551  25.4101097  16.0756731
  98.5574913  24.6753856  15.7629968  98.5841054  26.1875773  15.8296699
 104.0646397  23.6050117  21.1923777 103.4070072  24.2949378  21.2803906
 104.8686796  23.9946549  21.5357764  93.8172279  16.0720763  18.4363342
  94.3916031  15.8495944  17.7036535  94.4043261  16.1409457  19.1891944
 100.1374230  31.9378814  11.9988390  99.4635929  32.2410511  12.6073348
 100.5240052  32.7407894  11.6493847  99.3532687  19.4343945  21.4886059
  98.4355248  19.6558892  21.3307747  99.7692830  19.5090256  20.6297767
 103.6413652  26.9400491  17.3706862 103.1875979  26.0991401  17.4272052
 103.0107619  27.5761890  17.7081642 102.0846591  28.7776988  18.3056680
 102.3769566  29.3382045  17.5869045 102.5945212  29.0705549  19.0609839
  88.9782555  21.0499416  17.5830896  88.7806955  20.4568777  16.8581963
  88.4229219  20.7451626  18.3006835  96.9579279  20.9422522  19.7025489
  97.0127889  19.9896359  19.6267966  96.1470481  21.0981961  20.1866788
  94.8971639  19.5599582  17.4615868  94.0839504  19.8593753  17.8681060
  95.3930633  19.1655271  18.1790350  97.0480217  29.5557339  19.3950133
  97.0056395  29.7818185  18.4658665  97.9642916  29.3220714  19.5435934
 100.4945850  20.0241407  26.2930762 100.8495238  20.2512880  27.1525228
 101.1417982  20.3559783  25.6708017  94.3885714  17.1317938  23.0777103
  95.0285093  16.9906697  22.3800066  93.5563244  16.8452451  22.7015705
 106.2512967  25.2136369  22.0091363 106.6849474  25.1211659  22.8574417
 106.9644548  25.1893870  21.3711379  95.1646017  26.4320368  19.1912096
  95.9586616  25.9370688  18.9894671  94.4537710  25.9038231  18.8279801
  99.9840862  28.8138464  23.5424463 100.0377884  29.3829400  24.3102179
  99.1155643  28.9840349  23.1778500  91.4728781  20.5763450  15.2671848
  90.5426369  20.5147905  15.4841810  91.5686253  20.0539402  14.4708490
  91.3914330  17.1018263  17.8550090  91.6521147  18.0163596  17.7459250
  92.2131502  16.6342705  18.0046703  92.8639255  18.5156020  25.0248914
  93.5362309  18.3073382  24.3761563  92.0369042  18.3178106  24.5854147
 107.1128517  25.2560070  24.5424248 107.3064407  26.1605881  24.7883523
 107.0129135  24.7967489  25.3762833  98.7664827  15.1417961  27.0414575
  98.1192742  15.8407910  26.9479052  99.5365843  15.5754105  27.4090824
 102.1743625  25.4066813  30.1165129 102.0229132  25.1777365  29.1995212
 102.1648305  26.3637414  30.1296474  98.9428962  22.9798726  25.1011395
  99.8721022  23.1309885  24.9280362  98.5219992  23.0682746  24.2460042
  97.7417293  27.0049390  22.8709933  97.6028379  26.6368174  23.7435871
  96.9531890  27.5197029  22.6993890  98.3365445  32.1058486  14.2135469
  98.5117201  31.6346530  15.0281092  97.6498233  32.7324253  14.4416730
  99.2922509  26.3830993  20.2598770  98.9572341  26.3431763  21.1556420
  98.7926454  25.7175709  19.7869181  93.2666753  21.7898623  25.7851352
  93.1286550  21.0578862  26.3862891  94.1771676  21.7007523  25.5035539
  95.8949053  21.5018582  25.2735031  96.6048672  20.8611774  25.2321650
  95.8518361  21.7531477  26.1961212 103.8835832  28.4385935  28.1941610
 103.8248378  27.7545156  27.5272194 104.2855350  29.1804925  27.7422236
  94.6077987  18.4883800  27.0930671  94.0715344  18.0374538  27.7452267
  94.0194696  18.6229709  26.3501135  92.9026531  35.2547849  20.9875329
  93.1423129  35.8866373  21.6654348  92.0595727  34.9035889  21.2740689
 103.8853239  26.4025519  26.4255590 102.9980018  26.0651441  26.5481989
 104.4551790  25.6708551  26.6624356  85.5382386  22.7349611  19.7498642
  86.2253426  22.4211341  19.1619657  85.3830515  23.6390976  19.4765893
  90.3417108  17.6239808  24.1783665  90.2575297  17.0165477  23.4434075
  89.5199815  18.1148826  24.1793162  97.4154393  31.0626972  23.3916833
  97.3424564  31.8681943  23.9036138  96.9731786  31.2618937  22.5664855
  97.2044172  30.2998742  16.9019655  96.4211694  30.8420422  16.9957879
  97.9036917  30.8172721  17.3013896  99.8753076  30.9613806  25.5474992
 100.5881048  31.5961271  25.4750894  99.3843105  31.0577672  24.7314994
  97.0975791  18.2510754  19.2725545  96.7273579  17.6981795  19.9606450
  97.5934883  17.6468888  18.7200545  94.9264990  28.7108249  26.3680563
  95.6274449  29.3444732  26.5209957  94.4560105  29.0522981  25.6076202
 102.7266276  21.2652857  24.1933113 102.0737726  21.5128764  23.5385566
 103.1046655  20.4516995  23.8595591  99.6873449  31.3012550  18.2961284
  99.8695844  30.4834206  18.7589036 100.5106435  31.5180242  17.8586173
 100.0215615  30.2280735  15.5576332 100.5503381  29.7173190  14.9446494
 100.2843835  29.9123265  16.4221865  98.7753849  22.0072668  30.6799150
  98.0994486  21.9066797  31.3501526  99.5981482  21.8511881  31.1435148
  90.5232708  28.2444604  23.3011666  91.1086144  27.4988292  23.4339570
  90.3257546  28.5548561  24.1848329  93.3771363  31.2795852  18.3174108
  92.7081738  31.7641979  17.8338148  93.2384233  31.5265072  19.2317486
  85.1150362  20.8150204  22.0216109  85.1534462  20.2813795  22.8153227
  84.6090655  20.2885410  21.4027086  97.5176631  33.3139595  24.9156766
  98.0694939  33.4771217  25.6805852  97.8582825  33.9044033  24.2436791
  92.4941125  15.6614745  25.5178651  92.5582451  16.5229576  25.1056049
  92.4308245  15.0488747  24.7851010  91.9693397  17.7337877  29.1651685
  92.5965436  17.3514955  29.7789210  91.1121316  17.5152079  29.5307378
 102.3687506  28.1400853  30.7705421 102.9127410  28.7530811  30.2760376
 101.7874351  28.6980431  31.2872434  88.7458940  19.5414307  15.0970040
  89.0412381  18.6324985  15.0437094  87.8446976  19.5202046  14.7751042
 100.6545019  31.2621571  21.9020448 100.5296158  30.4611310  21.3931394
 101.3124110  31.7567764  21.4134418  92.2753187  17.6170303  21.0797589
  91.5539773  18.2306271  20.9405062  93.0646443  18.1528068  21.0014235
 102.7179927  29.0630591  23.5299999 101.7710263  28.9435942  23.4578325
 103.0662700  28.1753089  23.6126260  95.0779500  14.9524730  27.3538240
  95.6013902  15.1987026  28.1164550  94.8591834  15.7844764  26.9341378
  90.4746782  17.2228404  15.2209365  90.1459488  16.3425783  15.0384471
  90.8286152  17.1676073  16.1085754  99.7226360  28.8583307  19.7304351
  99.5751323  27.9300014  19.9111921 100.5479854  28.8803398  19.2461426
  93.5888605  17.5101374  15.5884843  93.9284677  18.0387295  14.8663451
  94.0360725  17.8481780  16.3643409 103.3260482  29.6811866  20.8169224
 104.2507030  29.4754727  20.6793675 103.1575786  29.4328267  21.7258565
  96.2832046  15.8938425  25.0387911  95.9428866  15.0946238  25.4408591
  95.5771052  16.1940136  24.4664744  96.9348517  12.9787737  23.4915234
  97.7574587  12.5048215  23.3694124  97.1786581  13.7578221  23.9913920
  94.4587096  19.6706858  21.3007213  94.3131677  19.9847161  22.1931494
  93.9812300  20.2891758  20.7478111  96.3183479  16.6609406  21.3488102
  96.3045048  15.7650499  21.0120400  97.0355907  16.6680070  21.9826388
  98.1709610  17.0946746  23.3941230  97.9127388  18.0163817  23.3925560
  97.6394650  16.6977181  24.0841694 103.1155798  30.1997533  16.1731315
 103.2892676  29.6343956  15.4205167 103.6084690  30.9998428  15.9910805
  88.9332758  22.2112202  24.2394874  88.3886226  22.9872010  24.3715148
  89.8112108  22.5583007  24.0813995  89.7198780  21.3382098  27.1325031
  88.9780516  21.4864734  27.7189661  89.3991524  21.5990364  26.2691780
  97.6642443  30.8798077  26.9305421  97.9729569  30.6347223  27.8028120
  98.4617925  31.0844715  26.4424291  97.6863055  33.0335986  19.1610797
  97.2468045  32.5412365  19.8543654  98.4371172  32.4908954  18.9202872
  90.1655394  29.2247527  19.1635425  90.9913414  28.9251299  18.7834069
  89.8149446  28.4555150  19.6125214  95.1336927  28.5773995  21.2333099
  94.5116936  27.9144700  20.9335327  95.8041794  28.6035127  20.5506747
  88.3663999  27.1433854  20.1224359  87.5295907  26.7156028  19.9408360
  88.3387644  27.3366297  21.0595150  95.2061454  17.0555783  30.8265605
  95.2549610  17.9317906  30.4443375  95.7483969  16.5133176  30.2537248
 105.6916300  27.5996907  30.1066742 104.9011844  27.5821046  29.5671241
 105.4549655  28.1385200  30.8615779 105.8114175  24.4489373  27.4199471
 105.8612180  24.2839381  28.3614993 105.7028099  23.5816632  27.0297351
  94.6950434  27.1277919  14.7091559  94.8438554  27.8113383  14.0558232
  95.5016877  27.1083009  15.2241015 103.1017938  20.4320301  28.7358777
 104.0027800  20.2926766  28.4442775 103.1765912  20.5974756  29.6756955
  97.4360743  17.8087156  27.5811964  96.5664052  18.1020722  27.3094552
  97.6720223  18.3927601  28.3019227 107.3132372  26.8686315  27.6641492
 107.0217180  27.2316295  28.5004953 106.7004503  26.1553323  27.4854824
 105.5619560  21.9918929  26.1321550 106.0373682  22.1846576  25.3240401
 104.6385126  22.0478115  25.8864934  92.4503067  23.1543096  15.7152628
  92.2049109  22.2505426  15.9132838  92.6198981  23.1560247  14.7732106
 100.1399777  14.0266773  25.0977384 100.6581721  14.7627800  24.7723873
  99.7854910  14.3330766  25.9324143  91.7198714  18.8871454  13.2138790
  91.0267959  18.9615809  12.5578826  91.4750466  18.1231798  13.7360307
  98.1945839  29.6226049  12.1803307  97.6219807  30.2416236  11.7273779
  98.7678633  30.1725411  12.7143229 104.2621229  18.8684689  24.3649856
 105.2138652  18.9682787  24.3862080 104.0924680  18.0762958  24.8747940
 102.2835609  15.9540273  24.5509257 101.6885541  16.2345285  23.8555745
 101.9985305  16.4434173  25.3225998  98.4631330  25.0104608  30.9820016
  99.3834340  25.1883207  31.1760063  98.4280913  24.0660653  30.8299716
  87.6813495  20.2043202  19.9073291  87.3616280  19.3508510  19.6147665
  87.1346924  20.4191780  20.6631258  91.4593403  22.9205643  23.6242797
  91.6779413  23.8522751  23.6430831  91.8719177  22.5613617  24.4097601
  96.3321268  18.4938849  33.0145546  96.2317995  19.4433205  32.9457638
  96.1142810  18.1657087  32.1421616  87.5501755  23.8246113  21.8766413
  86.8565227  23.4100066  21.3636367  88.2974746  23.8666650  21.2799831
  96.1952538  21.9235987  31.8310608  95.7119620  22.7236347  32.0374497
  96.2813477  21.9343932  30.8778052  89.4638498  23.7564367  19.7532427
  89.4409186  23.8552054  18.8014311  89.7739134  24.6029518  20.0749594
  92.1225876  25.8140522  23.8679042  93.0769129  25.7824464  23.8008973
  91.9238399  25.3531146  24.6829268  92.7125258  24.3841638  26.4349840
  93.5318147  24.8785717  26.4584677  92.9862066  23.4673606  26.4067407
  90.4776105  31.3560142  20.8849240  90.3430573  30.5960542  20.3187238
  90.0608167  32.0801041  20.4178029  93.6345231  32.2529459  21.0967682
  93.5177615  33.1974891  20.9946373  92.8137677  31.9503020  21.4853482
  87.9660172  18.7179772  27.1342037  88.6119036  18.2078726  27.6229262
  87.7577323  19.4548454  27.7085462 100.4913564  25.7860619  32.6334177
 101.3604724  25.9601272  32.2720812 100.0120316  26.6055036  32.5109906
  94.6599745  32.9057720  24.3123611  95.5626991  32.9381331  24.6290106
  94.4337115  31.9758171  24.3269947  96.4153347  31.6588707  20.9733689
  95.4648978  31.6590569  20.8598062  96.7185833  30.9121442  20.4569724
  92.3057663  15.8647389  31.2317051  93.1689125  15.5084194  31.4420375
  91.7323074  15.5261284  31.9192455 112.1506040  37.4949245  22.0379452
 112.7884450  37.3755993  21.3342792 112.0326883  38.4430089  22.0967404
 108.9595746  37.4476674  21.9740977 108.6214258  37.3317738  21.0861511
 109.8285515  37.0467839  21.9541983 104.8182562  39.3012150  17.9637867
 104.2547427  39.2102087  17.1954155 104.7034957  38.4812054  18.4440360
 109.4415529  38.6011525  27.9327182 109.4304170  38.2064324  27.0607686
 109.6036169  37.8677598  28.5260953 102.3646994  40.7963342  20.8022088
 103.1568286  40.4554166  20.3868387 102.6043644  40.9058317  21.7224241
 104.3237748  40.0572255  13.6739467 105.0968624  39.5101242  13.5352343
 104.6763147  40.9216504  13.8853928 106.1622791  41.3848637  26.8806366
 105.8712657  42.2894268  26.7653032 106.7979775  41.4265165  27.5950436
 107.0878997  38.7625486  23.4707726 107.6842570  38.5381508  22.7564689
 107.1453969  38.0210231  24.0733174 108.7231855  37.5803174  17.2128981
 108.3590063  37.0533795  17.9241902 109.5798971  37.1901643  17.0395466
 111.1212676  41.0710053  23.8756160 110.8213399  41.9735091  23.7671967
 110.7763735  40.8042236  24.7277313 104.5725157  37.5223849  19.9092864
 103.6475654  37.3900063  20.1170556 104.8209570  38.3018069  20.4062807
 101.9333968  37.1657123  20.7436653 102.0626349  37.4191602  21.6576065
 101.2531419  37.7584831  20.4241308 106.1033455  47.8354373  16.8427127
 106.0257485  48.7862198  16.9215608 105.4995099  47.4900245  17.5002054
 108.5950685  35.0082238  29.4988494 107.8184019  35.5676158  29.4891359
 109.2341248  35.4939021  30.0203364 106.8497058  37.8167692  29.0606461
 107.5911742  38.3552736  28.7841285 106.1434043  38.4433980  29.2178013
 112.3252397  39.9596832  27.6578623 112.7335753  39.5179243  26.9133255
 111.6029659  39.3849460  27.9112816 108.6783467  34.8969439  25.0312180
 109.5244662  35.3208852  25.1746829 108.6182105  34.2403063  25.7250743
 112.6481212  40.5198023  21.4130912 112.0190074  40.6843737  20.7106980
 112.2606874  40.9339632  22.1841876 111.8282913  32.5573807  26.6893353
 111.5843844  33.3115868  26.1527629 112.1042843  32.9359155  27.5240600
 113.7821375  39.1012420  25.3670619 113.9938271  39.7444180  24.6905000
 113.7351124  38.2674736  24.8992549 111.3847604  31.7130240  22.2707191
 110.5232083  32.0111494  22.5623929 111.4110039  31.9300639  21.3388224
 108.2009174  40.2572431  18.6780997 108.6647519  40.5360134  17.8885619
 107.9365972  39.3555875  18.4954087 105.0933255  39.8043912  21.6160760
 105.6634612  40.2331181  20.9778245 105.6841367  39.5226497  22.3144946
 107.1378060  36.3795583  15.4870562 107.8402103  36.8316627  15.9544488
 106.8058688  35.7379402  16.1150455 105.5858421  34.9707340  29.8621771
 104.9557082  35.6523621  30.0957168 105.4794509  34.8590421  28.9174910
 100.8803394  34.6379136  20.7887695 100.0902448  34.8936664  20.3127806
 101.3714641  35.4527474  20.8939736 114.8967203  41.9784375  23.5392976
 115.7184647  41.5764562  23.2575658 114.8929606  41.8752609  24.4909092
 102.8318139  35.0023715  17.7471172 102.0349302  35.1142409  18.2654668
 102.6043731  35.3410367  16.8812063 108.6623807  41.5268418  25.6953687
 108.7268239  41.9888826  26.5311859 107.9534731  40.8965783  25.8235997
  99.1641097  34.8909626  23.2202686  99.4149135  35.7756636  23.4860262
  99.7000645  34.7114228  22.4477778 108.3771824  43.1936526  15.5632667
 108.2417499  44.0388062  15.9917515 108.9181637  43.3955803  14.7998601
 104.8639164  29.2728106  32.2247022 104.4706110  28.7194304  32.8994667
 105.6805304  29.5838684  32.6153540 101.8301222  40.7111964  16.1360592
 102.3425742  41.5055214  16.2866157 102.4823935  40.0138254  16.0694194
 103.6396106  43.8277720  18.2183345 103.8162735  44.7495685  18.0304329
 104.4352940  43.5136139  18.6477725 107.7807125  30.6885985  29.8167279
 108.5216838  31.2893138  29.7371741 108.0125048  29.9463623  29.2585321
 102.9248463  35.8742352  28.0945509 102.8101978  34.9727609  28.3952607
 102.0692981  36.1206049  27.7430325 110.0040301  43.8160092  29.6933009
 109.5604155  43.0296471  29.3753914 110.6657514  44.0039243  29.0276900
 104.7627422  45.3455894  24.2193688 105.3134847  45.2172957  23.4470682
 103.9238898  45.6450783  23.8688581 112.1021539  44.0962892  27.7214410
 112.0840014  44.9171773  27.2294680 113.0241459  43.9716968  27.9464552
 108.5594593  41.6107022  28.5637919 109.0922930  40.8495310  28.3337227
 108.0308674  41.3180674  29.3062073  99.7950139  39.0400618  16.9120163
 100.6325361  39.4497627  16.6953870  99.9728406  38.1000060  16.8820357
 107.0503714  29.1710473  21.0646976 107.9156711  28.9753281  20.7052865
 107.1181223  28.9420824  21.9916332 109.9247306  40.7393014  16.0756731
 109.3968667  40.0045774  15.7629968 109.4234808  41.5167691  15.8296699
 114.9040152  38.9342035  21.1923777 114.2463826  39.6241296  21.2803906
 115.7080551  39.3238467  21.5357764 104.6566033  31.4012681  18.4363342
 105.2309785  31.1787862  17.7036535 105.2437016  31.4701375  19.1891944
 110.9767985  47.2670732  11.9988390 110.3029684  47.5702428  12.6073348
 111.3633807  48.0699812  11.6493847 110.1926441  34.7635863  21.4886059
 109.2749003  34.9850810  21.3307747 110.6086585  34.8382173  20.6297767
 114.4807407  42.2692409  17.3706862 114.0269734  41.4283319  17.4272052
 113.8501373  42.9053807  17.7081642 112.9240346  44.1068906  18.3056680
 113.2163320  44.6673963  17.5869045 113.4338967  44.3997467  19.0609839
  99.8176310  36.3791334  17.5830896  99.6200709  35.7860694  16.8581963
  99.2622974  36.0743544  18.3006835 107.7973033  36.2714440  19.7025489
 107.8521643  35.3188276  19.6267966 106.9864235  36.4273879  20.1866788
 105.7365393  34.8891500  17.4615868 104.9233259  35.1885670  17.8681060
 106.2324387  34.4947189  18.1790350 107.8873971  44.8849257  19.3950133
 107.8450150  45.1110103  18.4658665 108.8036670  44.6512631  19.5435934
 111.3339605  35.3533324  26.2930762 111.6888993  35.5804797  27.1525228
 111.9811736  35.6851701  25.6708017 105.2279468  32.4609855  23.0777103
 105.8678847  32.3198614  22.3800066 104.3956999  32.1744369  22.7015705
 117.0906721  40.5428287  22.0091363 117.5243228  40.4503576  22.8574417
 117.8038302  40.5185788  21.3711379 106.0039772  41.7612286  19.1912096
 106.7980370  41.2662606  18.9894671 105.2931464  41.2330149  18.8279801
 110.8234616  44.1430381  23.5424463 110.8771639  44.7121318  24.3102179
 109.9549398  44.3132266  23.1778500 102.3122535  35.9055367  15.2671848
 101.3820123  35.8439823  15.4841810 102.4080007  35.3831320  14.4708490
 102.2308084  32.4310180  17.8550090 102.4914902  33.3455513  17.7459250
 103.0525257  31.9634623  18.0046703 103.7033010  33.8447937  25.0248914
 104.3756063  33.6365300  24.3761563 102.8762796  33.6470023  24.5854147
 117.9522271  40.5851988  24.5424248 118.1458161  41.4897798  24.7883523
 117.8522889  40.1259407  25.3762833 109.6058582  30.4709878  27.0414575
 108.9586497  31.1699828  26.9479052 110.3759597  30.9046022  27.4090824
 113.0137380  40.7358731  30.1165129 112.8622886  40.5069282  29.1995212
 113.0042059  41.6929332  30.1296474 109.7822716  38.3090643  25.1011395
 110.7114776  38.4601803  24.9280362 109.3613746  38.3974664  24.2460042
 108.5811048  42.3341308  22.8709933 108.4422134  41.9660092  23.7435871
 107.7925644  42.8488947  22.6993890 109.1759200  47.4350404  14.2135469
 109.3510956  46.9638447  15.0281092 108.4891988  48.0616170  14.4416730
 110.1316263  41.7122910  20.2598770 109.7966096  41.6723680  21.1556420
 109.6320209  41.0467626  19.7869181 104.1060507  37.1190540  25.7851352
 103.9680305  36.3870779  26.3862891 105.0165430  37.0299440  25.5035539
 106.7342808  36.8310500  25.2735031 107.4442426  36.1903692  25.2321650
 106.6912116  37.0823395  26.1961212 114.7229586  43.7677853  28.1941610
 114.6642133  43.0837073  27.5272194 115.1249105  44.5096843  27.7422236
 105.4471742  33.8175718  27.0930671 104.9109099  33.3666456  27.7452267
 104.8588450  33.9521626  26.3501135 103.7420285  50.5839767  20.9875329
 103.9816883  51.2158291  21.6654348 102.8989482  50.2327807  21.2740689
 114.7246994  41.7317437  26.4255590 113.8373772  41.3943359  26.5481989
 115.2945545  41.0000468  26.6624356  96.3776141  38.0641529  19.7498642
  97.0647181  37.7503259  19.1619657  96.2224269  38.9682893  19.4765893
 101.1810863  32.9531725  24.1783665 101.0969052  32.3457395  23.4434075
 100.3593569  33.4440744  24.1793162 108.2548147  46.3918889  23.3916833
 108.1818319  47.1973861  23.9036138 107.8125540  46.5910855  22.5664855
 108.0437927  45.6290659  16.9019655 107.2605449  46.1712340  16.9957879
 108.7430672  46.1464639  17.3013896 110.7146831  46.2905723  25.5474992
 111.4274803  46.9253188  25.4750894 110.2236859  46.3869589  24.7314994
 107.9369546  33.5802672  19.2725545 107.5667333  33.0273712  19.9606450
 108.4328638  32.9760805  18.7200545 105.7658744  44.0400167  26.3680563
 106.4668204  44.6736650  26.5209957 105.2953859  44.3814898  25.6076202
 113.5660030  36.5944774  24.1933113 112.9131480  36.8420682  23.5385566
 113.9440410  35.7808912  23.8595591 110.5267204  46.6304467  18.2961284
 110.7089598  45.8126123  18.7589036 111.3500190  46.8472160  17.8586173
 110.8609369  45.5572653  15.5576332 111.3897136  45.0465107  14.9446494
 111.1237589  45.2415183  16.4221865 109.6147603  37.3364585  30.6799150
 108.9388240  37.2358715  31.3501526 110.4375237  37.1803799  31.1435148
 101.3626462  43.5736522  23.3011666 101.9479899  42.8280210  23.4339570
 101.1651301  43.8840479  24.1848329 104.2165117  46.6087769  18.3174108
 103.5475493  47.0933897  17.8338148 104.0777987  46.8556990  19.2317486
  95.9544117  36.1442122  22.0216109  95.9928216  35.6105713  22.8153227
  95.4484410  35.6177328  21.4027086 108.3570386  48.6431513  24.9156766
 108.9088694  48.8063134  25.6805852 108.6976579  49.2335951  24.2436791
 103.3334879  30.9906663  25.5178651 103.3976206  31.8521493  25.1056049
 103.2701999  30.3780664  24.7851010 102.8087152  33.0629795  29.1651685
 103.4359191  32.6806872  29.7789210 101.9515071  32.8443997  29.5307378
 113.2081260  43.4692770  30.7705421 113.7521164  44.0822729  30.2760376
 112.6268105  44.0272349  31.2872434  99.5852694  34.8706224  15.0970040
  99.8806136  33.9616903  15.0437094  98.6840730  34.8493964  14.7751042
 111.4938773  46.5913488  21.9020448 111.3689913  45.7903228  21.3931394
 112.1517864  47.0859682  21.4134418 103.1146941  32.9462221  21.0797589
 102.3933527  33.5598189  20.9405062 103.9040197  33.4819986  21.0014235
 113.5573682  44.3922508  23.5299999 112.6104017  44.2727860  23.4578325
 113.9056455  43.5045006  23.6126260 105.9173255  30.2816647  27.3538240
 106.4407657  30.5278944  28.1164550 105.6985588  31.1136682  26.9341378
 101.3140536  32.5520322  15.2209365 100.9853242  31.6717701  15.0384471
 101.6679907  32.4967991  16.1085754 110.5620115  44.1875225  19.7304351
 110.4145077  43.2591932  19.9111921 111.3873608  44.2095315  19.2461426
 104.4282359  32.8393292  15.5884843 104.7678432  33.3679213  14.8663451
 104.8754480  33.1773698  16.3643409 114.1654237  45.0103783  20.8169224
 115.0900784  44.8046645  20.6793675 113.9969540  44.7620185  21.7258565
 107.1225800  31.2230342  25.0387911 106.7822620  30.4238155  25.4408591
 106.4164806  31.5232053  24.4664744 107.7742272  28.3079655  23.4915234
 108.5968341  27.8340133  23.3694124 108.0180335  29.0870139  23.9913920
 105.2980851  34.9998775  21.3007213 105.1525431  35.3139079  22.1931494
 104.8206054  35.6183676  20.7478111 107.1577233  31.9901323  21.3488102
 107.1438802  31.0942417  21.0120400 107.8749662  31.9971987  21.9826388
 109.0103364  32.4238664  23.3941230 108.7521142  33.3455734  23.3925560
 108.4788405  32.0269098  24.0841694 113.9549553  45.5289451  16.1731315
 114.1286431  44.9635873  15.4205167 114.4478444  46.3290346  15.9910805
  99.7726513  37.5404120  24.2394874  99.2279981  38.3163928  24.3715148
 100.6505863  37.8874924  24.0813995 100.5592535  36.6674016  27.1325031
  99.8174271  36.8156652  27.7189661 100.2385279  36.9282282  26.2691780
 108.5036197  46.2089994  26.9305421 108.8123324  45.9639141  27.8028120
 109.3011679  46.4136633  26.4424291 108.5256809  48.3627904  19.1610797
 108.0861800  47.8704283  19.8543654 109.2764926  47.8200872  18.9202872
 101.0049148  44.5539445  19.1635425 101.8307168  44.2543217  18.7834069
 100.6543200  43.7847067  19.6125214 105.9730681  43.9065913  21.2333099
 105.3510691  43.2436618  20.9335327 106.6435548  43.9327045  20.5506747
  99.2057753  42.4725771  20.1224359  98.3689662  42.0447946  19.9408360
  99.1781399  42.6658215  21.0595150 106.0455209  32.3847701  30.8265605
 106.0943364  33.2609824  30.4443375 106.5877723  31.8425094  30.2537248
 116.5310055  42.9288824  30.1066742 115.7405598  42.9112963  29.5671241
 116.2943409  43.4677118  30.8615779 116.6507930  39.7781291  27.4199471
 116.7005935  39.6131298  28.3614993 116.5421853  38.9108550  27.0297351
 105.5344188  42.4569836  14.7091559 105.6832309  43.1405301  14.0558232
 106.3410632  42.4374927  15.2241015 113.9411692  35.7612219  28.7358777
 114.8421555  35.6218684  28.4442775 114.0159667  35.9266674  29.6756955
 108.2754497  33.1379074  27.5811964 107.4057807  33.4312640  27.3094552
 108.5113978  33.7219519  28.3019227 118.1526127  42.1978232  27.6641492
 117.8610935  42.5608213  28.5004953 117.5398258  41.4845241  27.4854824
 116.4013315  37.3210847  26.1321550 116.8767436  37.5138493  25.3240401
 115.4778880  37.3770033  25.8864934 103.2896821  38.4835014  15.7152628
 103.0442863  37.5797344  15.9132838 103.4592736  38.4852165  14.7732106
 110.9793531  29.3558690  25.0977384 111.4975475  30.0919717  24.7723873
 110.6248664  29.6622684  25.9324143 102.5592469  34.2163372  13.2138790
 101.8661714  34.2907727  12.5578826 102.3144221  33.4523715  13.7360307
 109.0339594  44.9517967  12.1803307 108.4613561  45.5708154  11.7273779
 109.6072388  45.5017329  12.7143229 115.1014984  34.1976607  24.3649856
 116.0532407  34.2974705  24.3862080 114.9318434  33.4054876  24.8747940
 113.1229363  31.2832190  24.5509257 112.5279295  31.5637203  23.8555745
 112.8379060  31.7726091  25.3225998 109.3025085  40.3396526  30.9820016
 110.2228094  40.5175125  31.1760063 109.2674668  39.3952571  30.8299716
  98.5207250  35.5335119  19.9073291  98.2010034  34.6800428  19.6147665
  97.9740678  35.7483698  20.6631258 102.2987157  38.2497560  23.6242797
 102.5173167  39.1814668  23.6430831 102.7112931  37.8905535  24.4097601
 107.1715023  33.8230766  33.0145546 107.0711750  34.7725123  32.9457638
 106.9536565  33.4949005  32.1421616  98.3895510  39.1538031  21.8766413
  97.6958981  38.7391984  21.3636367  99.1368501  39.1958567  21.2799831
 107.0346293  37.2527905  31.8310608 106.5513375  38.0528265  32.0374497
 107.1207232  37.2635850  30.8778052 100.3032252  39.0856285  19.7532427
 100.2802941  39.1843972  18.8014311 100.6132889  39.9321436  20.0749594
 102.9619630  41.1432440  23.8679042 103.9162884  41.1116382  23.8008973
 102.7632154  40.6823063  24.6829268 103.5519012  39.7133556  26.4349840
 104.3711901  40.2077634  26.4584677 103.8255820  38.7965524  26.4067407
 101.3169859  46.6852059  20.8849240 101.1824327  45.9252460  20.3187238
 100.9001921  47.4092959  20.4178029 104.4738985  47.5821376  21.0967682
 104.3571369  48.5266809  20.9946373 103.6531431  47.2794938  21.4853482
  98.8053927  34.0471690  27.1342037  99.4512790  33.5370644  27.6229262
  98.5971078  34.7840371  27.7085462 111.3307319  41.1152537  32.6334177
 112.1998479  41.2893189  32.2720812 110.8514070  41.9346954  32.5109906
 105.4993499  48.2349638  24.3123611 106.4020746  48.2673248  24.6290106
 105.2730869  47.3050089  24.3269947 107.2547101  46.9880625  20.9733689
 106.3042732  46.9882486  20.8598062 107.5579587  46.2413359  20.4569724
 103.1451418  31.1939307  31.2317051 104.0082879  30.8376112  31.4420375
 102.5716828  30.8553202  31.9192455 115.6576317  54.6304068  17.9637867
 115.0941182  54.5394005  17.1954155 115.5428712  53.8103972  18.4440360
 120.2809284  53.9303443  27.9327182 120.2697925  53.5356241  27.0607686
 120.4429923  53.1969516  28.5260953 113.2040749  56.1255259  20.8022088
 113.9962040  55.7846084  20.3868387 113.4437399  56.2350234  21.7224241
 115.1631502  55.3864172  13.6739467 115.9362378  54.8393160  13.5352343
 115.5156901  56.2508422  13.8853928 117.0016545  56.7140555  26.8806366
 116.7106411  57.6186186  26.7653032 117.6373529  56.7557082  27.5950436
 117.9272752  54.0917403  23.4707726 118.5236324  53.8673426  22.7564689
 117.9847723  53.3502149  24.0733174 119.5625610  52.9095092  17.2128981
 119.1983817  52.3825713  17.9241902 120.4192726  52.5193561  17.0395466
 115.4118912  52.8515767  19.9092864 114.4869408  52.7191981  20.1170556
 115.6603325  53.6309986  20.4062807 112.7727723  52.4949041  20.7436653
 112.9020104  52.7483520  21.6576065 112.0925174  53.0876749  20.4241308
 116.9427210  63.1646291  16.8427127 116.8651240  64.1154116  16.9215608
 116.3388854  62.8192163  17.5002054 119.4344440  50.3374156  29.4988494
 118.6577774  50.8968076  29.4891359 120.0735003  50.8230939  30.0203364
 117.6890812  53.1459609  29.0606461 118.4305496  53.6844653  28.7841285
 116.9827797  53.7725898  29.2178013 119.5177222  50.2261357  25.0312180
 120.3638417  50.6500770  25.1746829 119.4575859  49.5694981  25.7250743
 119.0402928  55.5864349  18.6780997 119.5041274  55.8652052  17.8885619
 118.7759726  54.6847793  18.4954087 115.9327009  55.1335830  21.6160760
 116.5028366  55.5623098  20.9778245 116.5235121  54.8518415  22.3144946
 117.9771814  51.7087501  15.4870562 118.6795858  52.1608545  15.9544488
 117.6452443  51.0671320  16.1150455 116.4252176  50.2999258  29.8621771
 115.7950836  50.9815538  30.0957168 116.3188264  50.1882339  28.9174910
 111.7197148  49.9671054  20.7887695 110.9296202  50.2228582  20.3127806
 112.2108396  50.7819391  20.8939736 113.6711894  50.3315633  17.7471172
 112.8743057  50.4434327  18.2654668 113.4437486  50.6702285  16.8812063
 119.5017561  56.8560336  25.6953687 119.5661994  57.3180743  26.5311859
 118.7928485  56.2257701  25.8235997 110.0034851  50.2201544  23.2202686
 110.2542890  51.1048554  23.4860262 110.5394400  50.0406146  22.4477778
 119.2165579  58.5228444  15.5632667 119.0811254  59.3679979  15.9917515
 119.7575391  58.7247721  14.7998601 115.7032918  44.6020023  32.2247022
 115.3099864  44.0486222  32.8994667 116.5199059  44.9130602  32.6153540
 112.6694976  56.0403882  16.1360592 113.1819497  56.8347132  16.2866157
 113.3217689  55.3430172  16.0694194 114.4789861  59.1569638  18.2183345
 114.6556489  60.0787603  18.0304329 115.2746694  58.8428057  18.6477725
 118.6200879  46.0177902  29.8167279 119.3610593  46.6185056  29.7371741
 118.8518802  45.2755540  29.2585321 113.7642217  51.2034270  28.0945509
 113.6495733  50.3019527  28.3952607 112.9086735  51.4497966  27.7430325
 115.6021176  60.6747812  24.2193688 116.1528602  60.5464875  23.4470682
 114.7632652  60.9742701  23.8688581 119.3988347  56.9398939  28.5637919
 119.9316684  56.1787228  28.3337227 118.8702429  56.6472591  29.3062073
 110.6343893  54.3692536  16.9120163 111.4719115  54.7789544  16.6953870
 110.8122161  53.4291978  16.8820357 117.8897469  44.5002390  21.0646976
 118.7550465  44.3045199  20.7052865 117.9574978  44.2712742  21.9916332
 115.4959788  46.7304598  18.4363342 116.0703540  46.5079780  17.7036535
 116.0830770  46.7993293  19.1891944 110.6570064  51.7083251  17.5830896
 110.4594464  51.1152612  16.8581963 110.1016728  51.4035461  18.3006835
 118.6366788  51.6006358  19.7025489 118.6915398  50.6480194  19.6267966
 117.8257990  51.7565797  20.1866788 116.5759148  50.2183417  17.4615868
 115.7627013  50.5177588  17.8681060 117.0718142  49.8239106  18.1790350
 118.7267726  60.2141174  19.3950133 118.6843904  60.4402021  18.4658665
 119.6430424  59.9804549  19.5435934 116.0673223  47.7901773  23.0777103
 116.7072602  47.6490532  22.3800066 115.2350753  47.5036286  22.7015705
 116.8433526  57.0904203  19.1912096 117.6374125  56.5954523  18.9894671
 116.1325219  56.5622066  18.8279801 113.1516290  51.2347285  15.2671848
 112.2213878  51.1731741  15.4841810 113.2473762  50.7123238  14.4708490
 113.0701839  47.7602098  17.8550090 113.3308656  48.6747431  17.7459250
 113.8919011  47.2926540  18.0046703 114.5426764  49.1739855  25.0248914
 115.2149818  48.9657217  24.3761563 113.7156551  48.9761941  24.5854147
 119.4204802  57.6633225  22.8709933 119.2815888  57.2952010  23.7435871
 118.6319399  58.1780865  22.6993890 120.0152954  62.7642322  14.2135469
 120.1904710  62.2930365  15.0281092 119.3285742  63.3908088  14.4416730
 114.9454262  52.4482458  25.7851352 114.8074059  51.7162697  26.3862891
 115.8559185  52.3591358  25.5035539 117.5736562  52.1602417  25.2735031
 118.2836181  51.5195610  25.2321650 117.5305870  52.4115312  26.1961212
 116.2865496  49.1467635  27.0930671 115.7502853  48.6958374  27.7452267
 115.6982205  49.2813544  26.3501135 114.5814040  65.9131685  20.9875329
 114.8210638  66.5450209  21.6654348 113.7383236  65.5619725  21.2740689
 107.2169895  53.3933446  19.7498642 107.9040935  53.0795176  19.1619657
 107.0618024  54.2974811  19.4765893 112.0204617  48.2823643  24.1783665
 111.9362806  47.6749313  23.4434075 111.1987324  48.7732661  24.1793162
 119.0941902  61.7210807  23.3916833 119.0212073  62.5265779  23.9036138
 118.6519295  61.9202773  22.5664855 118.8831681  60.9582577  16.9019655
 118.0999203  61.5004257  16.9957879 119.5824426  61.4756557  17.3013896
 118.7763300  48.9094589  19.2725545 118.4061088  48.3565630  19.9606450
 119.2722392  48.3052723  18.7200545 116.6052499  59.3692085  26.3680563
 117.3061958  60.0028567  26.5209957 116.1347614  59.7106816  25.6076202
 112.2020217  58.9028440  23.3011666 112.7873653  58.1572127  23.4339570
 112.0045055  59.2132396  24.1848329 115.0558872  61.9379687  18.3174108
 114.3869247  62.4225815  17.8338148 114.9171742  62.1848907  19.2317486
 106.7937871  51.4734040  22.0216109 106.8321971  50.9397630  22.8153227
 106.2878164  50.9469245  21.4027086 119.1964140  63.9723430  24.9156766
 119.7482448  64.1355052  25.6805852 119.5370334  64.5627868  24.2436791
 114.1728634  46.3198580  25.5178651 114.2369960  47.1813411  25.1056049
 114.1095754  45.7072582  24.7851010 113.6480906  48.3921713  29.1651685
 114.2752945  48.0098790  29.7789210 112.7908825  48.1735915  29.5307378
 110.4246449  50.1998142  15.0970040 110.7199890  49.2908820  15.0437094
 109.5234485  50.1785881  14.7751042 113.9540696  48.2754138  21.0797589
 113.2327282  48.8890106  20.9405062 114.7433952  48.8111903  21.0014235
 116.7567009  45.6108565  27.3538240 117.2801411  45.8570862  28.1164550
 116.5379343  46.4428600  26.9341378 112.1534291  47.8812240  15.2209365
 111.8246997  47.0009619  15.0384471 112.5073661  47.8259908  16.1085754
 115.2676114  48.1685209  15.5884843 115.6072186  48.6971131  14.8663451
 115.7148234  48.5065616  16.3643409 117.9619555  46.5522260  25.0387911
 117.6216375  45.7530073  25.4408591 117.2558561  46.8523971  24.4664744
 118.6136026  43.6371573  23.4915234 119.4362096  43.1632051  23.3694124
 118.8574090  44.4162056  23.9913920 116.1374605  50.3290693  21.3007213
 115.9919186  50.6430996  22.1931494 115.6599809  50.9475593  20.7478111
 117.9970988  47.3193241  21.3488102 117.9832557  46.4234334  21.0120400
 118.7143416  47.3263905  21.9826388 119.8497119  47.7530581  23.3941230
 119.5914897  48.6747652  23.3925560 119.3182159  47.3561016  24.0841694
 110.6120267  52.8696038  24.2394874 110.0673735  53.6455846  24.3715148
 111.4899617  53.2166842  24.0813995 111.3986289  51.9965934  27.1325031
 110.6568025  52.1448569  27.7189661 111.0779033  52.2574199  26.2691780
 119.3429952  61.5381912  26.9305421 119.6517078  61.2931059  27.8028120
 120.1405434  61.7428551  26.4424291 119.3650564  63.6919822  19.1610797
 118.9255554  63.1996200  19.8543654 120.1158681  63.1492789  18.9202872
 111.8442903  59.8831363  19.1635425 112.6700923  59.5835134  18.7834069
 111.4936955  59.1138985  19.6125214 116.8124436  59.2357831  21.2333099
 116.1904445  58.5728536  20.9335327 117.4829303  59.2618963  20.5506747
 110.0451508  57.8017689  20.1224359 109.2083416  57.3739863  19.9408360
 110.0175153  57.9950132  21.0595150 116.8848963  47.7139619  30.8265605
 116.9337119  48.5901742  30.4443375 117.4271478  47.1717012  30.2537248
 116.3737943  57.7861754  14.7091559 116.5226063  58.4697219  14.0558232
 117.1804386  57.7666844  15.2241015 119.1148252  48.4670991  27.5811964
 118.2451561  48.7604557  27.3094552 119.3507732  49.0511436  28.3019227
 114.1290576  53.8126932  15.7152628 113.8836618  52.9089262  15.9132838
 114.2986490  53.8144082  14.7732106 113.3986223  49.5455289  13.2138790
 112.7055468  49.6199644  12.5578826 113.1537975  48.7815633  13.7360307
 119.8733348  60.2809885  12.1803307 119.3007315  60.9000072  11.7273779
 120.4466142  60.8309246  12.7143229 109.3601004  50.8627037  19.9073291
 109.0403789  50.0092345  19.6147665 108.8134433  51.0775615  20.6631258
 113.1380912  53.5789478  23.6242797 113.3566922  54.5106586  23.6430831
 113.5506686  53.2197453  24.4097601 118.0108777  49.1522684  33.0145546
 117.9105504  50.1017041  32.9457638 117.7930319  48.8240923  32.1421616
 109.2289264  54.4829949  21.8766413 108.5352736  54.0683901  21.3636367
 109.9762255  54.5250485  21.2799831 117.8740047  52.5819823  31.8310608
 117.3907129  53.3820183  32.0374497 117.9600986  52.5927768  30.8778052
 111.1426007  54.4148202  19.7532427 111.1196695  54.5135890  18.8014311
 111.4526643  55.2613353  20.0749594 113.8013385  56.4724357  23.8679042
 114.7556638  56.4408300  23.8008973 113.6025908  56.0114981  24.6829268
 114.3912767  55.0425473  26.4349840 115.2105656  55.5369552  26.4584677
 114.6649575  54.1257442  26.4067407 112.1563614  62.0143977  20.8849240
 112.0218082  61.2544378  20.3187238 111.7395676  62.7384877  20.4178029
 115.3132740  62.9113294  21.0967682 115.1965124  63.8558726  20.9946373
 114.4925186  62.6086855  21.4853482 109.6447681  49.3763607  27.1342037
 110.2906545  48.8662561  27.6229262 109.4364832  50.1132289  27.7085462
 116.3387254  63.5641556  24.3123611 117.2414500  63.5965166  24.6290106
 116.1124624  62.6342007  24.3269947 118.0940856  62.3172542  20.9733689
 117.1436487  62.3174404  20.8598062 118.3973342  61.5705277  20.4569724
 113.9845172  46.5231224  31.2317051 114.8476634  46.1668029  31.4420375
 113.4110583  46.1845119  31.9192455 118.0563650  68.7225364  19.7498642
 118.7434690  68.4087094  19.1619657 117.9011778  69.6266729  19.4765893
 117.6331626  66.8025957  22.0216109 117.6715725  66.2689548  22.8153227
 117.1271919  66.2761163  21.4027086 120.1994759  66.1918955  19.9073291
 119.8797543  65.3384263  19.6147665 119.6528187  66.4067533  20.6631258
   3.7541889  53.6515047  99.5406105   3.0005598  53.0822445  99.3850109
   3.8889431  53.6177711 100.4876740   4.1648304  53.8090657 102.2726349
   4.8951693  53.5475945 102.8334053   3.5555250  53.0719378 102.3128417
   2.2463602  51.9498519 102.8700800   1.5196765  51.8154484 102.2617292
   1.8310888  52.2575348 103.6757518   2.1712469  51.4776572  98.9977653
   1.6112027  51.5469761  99.7709215   1.5655973  51.3017557  98.2777149
   3.7568488  68.1533086 101.6907609   4.3946898  68.0339833 100.9870949
   3.6389331  69.1013930 101.7495561   2.0044568  73.6266958  92.9280489
   1.3532548  74.2121039  92.5414503   2.7988931  74.1573153  92.9875527
   3.3109756  65.8784540  98.7660817   4.0972845  65.4603963  98.4151234
   3.5748461  66.7830632  98.9342465   3.4819834  71.3157390  93.4649474
   2.8465667  71.3892017  94.1770378   3.1517240  71.9050989  92.7868553
   8.7118183  65.8159773  99.6693795   9.4443355  65.2458990  99.9031625
   7.9557539  65.4281374 100.1100301   6.2343604  59.5281347 104.1288404
   5.9026928  60.3976758 103.9049619   5.6389217  59.2117631 104.8082434
   2.7275123  71.7293893 103.5284317   2.4275846  72.6318932 103.4200124
   2.3826183  71.4626076 104.3805470   6.1272267  64.2476433 101.2081754
   5.2189144  64.1791842 100.9140515   6.0759863  64.7248378 102.0363580
   7.9933913  62.4492872 102.9859628   7.3508294  62.7425405 102.3399423
   7.4888842  62.3345792 103.7912825   5.6474077  66.1956045  93.6745487
   6.5591933  66.4283432  93.4993185   5.1383724  66.7793089  93.1120566
   4.2543659  71.1781863 101.0659069   3.6252522  71.3427578 100.3635137
   3.8669321  71.5923473 101.8370033   8.1332891  72.1136301  98.4203433
   7.4483929  72.4935203  97.8700466   8.2176741  72.7231628  99.1535380
   3.4345360  63.2157648 106.3421510   3.1906292  63.9699708 105.8055786
   3.7105291  63.5942996 107.1768758   5.3883823  69.7596260 105.0198776
   5.6000718  70.4028020 104.3433157   5.3413571  68.9258577 104.5520706
   2.9910052  62.3714081 101.9235348   2.1294531  62.6695335 102.2152086
   3.0172486  62.5884480 100.9916381   6.5029651  72.6368216 103.1921133
   7.3247095  72.2348403 102.9103815   6.4992054  72.5336450 104.1437249
  14.5935644  68.9806964  99.5406105  13.8399352  68.4114362  99.3850109
  14.7283185  68.9469629 100.4876740   3.3326735  57.3750928 103.7459718
   2.9891005  58.2652570 103.6698828   3.7005698  57.1852586 102.8829303
   3.2977018  67.3659540  92.2532153   2.7823642  68.1364144  92.4920540
   3.0254327  66.6924676  92.8765214   2.4123276  59.7455584 101.7108951
   1.9088071  59.7085719 100.8976756   2.7053883  60.6548326 101.7705608
   8.2711292  70.1191894  94.1885326   7.4940735  69.7803054  93.7440488
   8.9502773  70.1244517  93.5140291   3.0863321  65.2386632  94.0791934
   2.7813457  65.5532781  94.9302077   4.0393764  65.3168052  94.1219267
   1.5309753  71.3976855  95.7284888   1.0031115  70.6629615  95.4158125
   1.0297256  72.1751531  95.4824856   6.5102599  69.5925875 100.8451934
   5.8526274  70.2825137 100.9332063   7.3142998  69.9822307 101.1885921
   5.3208058  67.9470248  98.8955876   5.8339940  68.5800240  99.3977586
   5.9709282  67.3471444  98.5299236   2.5830432  77.9254572  91.6516547
   1.9092131  78.2286269  92.2601505   2.9696254  78.7283653  91.3022004
   1.7988889  65.4219704 101.1414217   0.8811450  65.6434651 100.9835905
   2.2149033  65.4966014 100.2825924   2.5823937  66.8211119  96.2716897
   3.3295756  67.3332517  95.9624019   2.8515526  66.4995172  97.1321290
   6.0869854  72.9276250  97.0235019   5.6332181  72.0867159  97.0800209
   5.4563821  73.5637648  97.3609799   5.0302774  63.8568236  98.2535686
   4.2925531  63.3445622  98.5845929   5.2829547  63.4168617  97.4418963
   4.5302794  74.7652746  97.9584837   4.8225768  75.3257803  97.2397202
   5.0401414  75.0581307  98.7137996   5.1314401  56.6344488  98.8477455
   5.4373278  55.7741851  98.5603370   5.8567006  57.2262108  98.6476449
   2.9402052  66.0117165 105.9458919   3.2951440  66.2388638 106.8053385
   3.5874184  66.3435542 105.3236174   8.6699789  69.1335601  96.6508248
   8.5317688  69.3237197  95.7229437   8.3136008  69.8954984  97.1076299
   8.6969169  71.2012128 101.6619520   9.1305676  71.1087417 102.5102574
   9.4100750  71.1769628 101.0239536   9.5584719  71.2435828 104.1952405
   9.7520609  72.1481639 104.4411680   9.4585337  70.7843248 105.0290990
   1.2121029  61.1293719 106.6942732   0.5648944  61.8283669 106.6007209
   1.9822045  61.5629863 107.0618981   1.3885164  68.9674484 104.7539552
   2.3177224  69.1185644 104.5808519   0.9676194  69.0558505 103.8988199
   1.7378711  72.3706751  99.9126928   1.4028543  72.3307521 100.8084577
   1.2382656  71.7051467  99.4397338   4.6737902  69.7162785  90.1863987
   4.0567073  68.9909614  90.0897040   4.2054391  70.4772146  89.8431061
   6.3309441  72.3901278 106.0783747   5.4436220  72.0527199 106.2010146
   6.9007992  71.6584309 106.3152513   2.9597024  62.0969130  99.1982017
   3.4565724  61.3439092  98.8783088   2.1884006  62.1333446  98.6325227
  10.8126782  67.8009495 100.8400309  10.8016658  68.6834210 100.4694242
   9.9444161  67.4481046 100.6454846   4.0426805  70.8540817  96.7720441
   3.1083084  70.9742279  96.6025145   4.2203473  69.9513284  96.5080451
   7.4299356  66.6958136  97.3070475   7.8959809  67.5286128  97.2330778
   7.8806857  66.2303118  98.0115733   5.4975587  73.0401957  94.3056627
   5.7735431  72.9258552  95.2150501   4.6280086  72.6419442  94.2668800
   5.4016019  59.0638723 101.3461376   4.4879099  59.2942950 101.5143583
   5.8309121  59.1477167 102.1975409   5.1722478  67.2528615 103.8461270
   4.5193928  67.5004522 103.1913723   5.5502858  66.4392753 103.5123748
   2.1329651  77.2888308  97.9489441   2.3152046  76.4709964  98.4117193
   2.9562637  77.5056000  97.5114331   2.4671817  76.2156493  95.2104489
   2.9959583  75.7048948  94.5974651   2.7300037  75.8999023  96.0750022
   3.1001221  77.2497329 101.5548606   2.9752360  76.4487069 101.0459551
   3.7580312  77.7443522 101.0662576   5.1636129  75.0506349 103.1828156
   4.2166465  74.9311700 103.1106482   5.5118902  74.1628847 103.2654417
   2.1682562  74.8459065  99.3832508   2.0207525  73.9175773  99.5640078
   2.9936056  74.8679156  98.8989583   5.7716684  75.6687624 100.4697381
   6.6963232  75.4630485 100.3321832   5.6031988  75.4204025 101.3786722
   2.1644077  62.6996903  94.3764625   2.3807691  63.5821541  94.0753453
   1.6838144  62.3083116  93.6470267   5.5612001  76.1873291  95.8259472
   5.7348878  75.6219714  95.0733325   6.0540892  76.9874186  95.6438962
   1.0367767  59.2154455  99.4070549   1.0589464  59.2793788  98.4522529
   1.4535826  58.3758964  99.6011055  11.4151392  68.9509714  97.4449772
  11.8582538  68.2017040  97.0468895  10.5377902  68.9419851  97.0623504
   6.5487173  75.5040056  92.9256370   7.2438078  76.1246749  93.1443685
   6.8910323  74.6535407  93.2008748   8.4478596  72.9539761  94.4543701
   8.9729920  73.2927034  93.7293021   8.3600949  72.0186777  94.2706836
   8.2570377  70.4365131 107.0727628   8.3068382  70.2715139 108.0143150
   8.1484301  69.5692390 106.6825508   5.5474140  66.4196059 108.3886934
   6.4484002  66.2802524 108.0970932   5.6222114  66.5850514 109.3285112
   9.7588574  72.8562073 107.3169649   9.4673382  73.2192054 108.1533110
   9.1460705  72.1429081 107.1382981  10.9584256  70.4214953  99.8372219
  11.7931148  70.8604757 100.0009780  11.0943385  69.9453606  99.0180465
   8.0075762  67.9794688 105.7849707   8.4829884  68.1722334 104.9768559
   7.0841328  68.0353873 105.5393091   2.5855979  60.0142531 104.7505541
   3.1037923  60.7503558 104.4252030   2.2311112  60.3206524 105.5852300
   2.8368573  56.4342814 100.2706438   3.1170327  55.7666003 100.8966864
   3.6219180  56.6271909  99.7581101   6.7077431  64.8560448 104.0178013
   7.6594854  64.9558545 104.0390237   6.5380882  64.0638716 104.5276097
   4.7291811  61.9416031 104.2037414   4.1341743  62.2221044 103.5083902
   4.4441507  62.4309932 104.9754155   3.8599301  75.8938958  92.9640046
   4.7929974  75.8284519  93.1672922   3.7722514  76.7295225  92.5054579
   6.4887318  75.2104828  89.9243994   6.4100949  74.8764692  90.8179752
   7.3096985  75.7026596  89.9235466   9.1865509  68.0766567 103.1320312
   9.1541829  67.1382568 103.3179996   9.7966133  68.1550604 102.3986137
   1.0248840  66.9462620  89.1747516   1.9707945  66.8168828  89.2435934
   0.6463085  66.2077282  89.6516945   9.3359998  64.8677611 103.1778596
   8.8199046  64.0836067 102.9908524  10.2199946  64.5396327 103.3425115
   6.9970725  58.6118626  99.1374408   6.7995546  58.3033715 100.0217740
   7.6070430  59.3380265  99.2672338  15.0042059  69.1382574 102.2726349
  15.7345447  68.8767862 102.8334053  14.3949004  68.4011296 102.3128417
  13.0857356  67.2790437 102.8700800  12.3590520  67.1446402 102.2617292
  12.6704643  67.5867265 103.6757518   2.7544371  58.4927533  96.8870940
   3.3075410  58.9122987  97.5460963   2.9914457  57.5663281  96.9293896
   6.1323178  60.6028058  96.3949604   5.5521847  61.2612862  96.0127656
   5.8659111  59.7805403  95.9837021   4.5826745  60.0033116  98.5970924
   5.0826523  60.1149651  97.7885243   5.2262353  59.6994169  99.2371733
   4.9148056  62.7628149  95.4505952   4.0273911  63.0477799  95.2326147
   5.3302045  62.6021912  94.6033229   8.2662592  62.7874670  99.1660291
   9.0422982  63.2771122  99.4384908   7.5410727  63.2132724  99.6232161
  10.7035151  63.5002289 100.2234232  11.2979642  63.2598025  99.5127540
  10.7761735  62.7809420 100.8507768   4.0591270  72.5272823  89.5453972
   4.7627120  72.7322826  90.1611628   3.3353918  73.0949585  89.8103056
   4.8889080  68.2782685  95.6656242   4.8324281  68.7351236  94.8263875
   5.4417422  67.5173369  95.4879085   8.6993886  64.0672417  96.4906362
   8.4430820  63.6669052  97.3214569   8.0746754  64.7816211  96.3656501
  13.0106224  66.8068490  98.9977653  12.4505782  66.8761679  99.7709215
  12.4049727  66.6309474  98.2777149   5.9677967  72.9655353  91.5952432
   6.8023571  72.5336551  91.4129907   5.8062310  72.7937366  92.5229327
   5.6223859  69.4687466  92.9608771   5.5672663  69.3031737  92.0197216
   4.9969915  70.1763499  93.1170961   2.7472104  55.5638352  96.7940027
   1.9804500  55.0096838  96.9396709   3.1582809  55.6360220  97.6554178
  14.5962242  83.4825004 101.6907609  15.2340652  83.3631751 100.9870949
  14.4783085  84.4305848 101.7495561  11.4051948  83.4352432 101.6269134
  11.0670460  83.3193497 100.7389668  12.2741717  83.0343597 101.6070140
   7.2638764  85.2887908  97.6166025   6.7003629  85.1977845  96.8482312
   7.1491159  84.4687813  98.0968517  12.8438323  88.9558876  92.9280489
  12.1926303  89.5412956  92.5414503  13.6382686  89.4865071  92.9875527
   6.7693950  86.0448013  93.3267624   7.5424826  85.4977000  93.1880500
   7.1219349  86.9092262  93.5382085   9.1060228  82.2040679  90.9586074
   9.3585749  81.6822201  90.1969537   8.1684787  82.0406825  91.0612757
  14.1503511  81.2076458  98.7660817  14.9366600  80.7895881  98.4151234
  14.4142215  82.1122550  98.9342465  14.3213588  86.6449308  93.4649474
  13.6859421  86.7183934  94.1770378  13.9910994  87.2342907  92.7868553
  19.5511938  81.1451691  99.6693795  20.2837110  80.5750908  99.9031625
  18.7951294  80.7573291 100.1100301   8.8256517  84.1068785  93.1610449
   8.7092775  83.4313689  93.8291533   8.9358776  83.6201159  92.3442602
  11.1688058  83.5678932  96.8657138  10.8046265  83.0409553  97.5770059
  12.0255173  83.1777401  96.6923623  17.0737358  74.8573265 104.1288404
  16.7420683  75.7268676 103.9049619  16.4782972  74.5409549 104.8082434
  10.8093545  78.5968832  91.8618486  10.9767947  79.4649068  92.2288957
  10.6190714  78.7596114  90.9379776  13.5668878  87.0585811 103.5284317
  13.2669601  87.9610850 103.4200124  13.2219937  86.7917994 104.3805470
   7.0181359  83.5099608  99.5621021   6.0931856  83.3775822  99.7698713
   7.2665772  84.2893827 100.0590964  16.9666021  79.5768351 101.2081754
  16.0582899  79.5083760 100.9140515  16.9153617  80.0540296 102.0363580
  10.7882765  81.0526490  92.8465153  10.6682391  81.4983540  93.6850634
  10.0935354  81.4011807  92.2878691  18.8327668  77.7784789 102.9859628
  18.1902048  78.0717323 102.3399423  18.3282596  77.6637710 103.7912825
  16.4867832  81.5247963  93.6745487  17.3985688  81.7575349  93.4993185
  15.9777479  82.1085007  93.1120566  11.1239669  80.8845197 104.6840337
  11.9700864  81.3084611 104.8274986  11.0638307  80.2278822 105.3778900
  15.0937414  86.5073781 101.0659069  14.4646276  86.6719495 100.3635137
  14.7063076  86.9215391 101.8370033  18.9726646  87.4428219  98.4203433
  18.2877684  87.8227120  97.8700466  19.0570495  88.0523546  99.1535380
  14.2739115  78.5449566 106.3421510  14.0300046  79.2991626 105.8055786
  14.5499045  78.9234913 107.1768758  16.2277577  85.0888178 105.0198776
  16.4394473  85.7319938 104.3433157  16.1807326  84.2550495 104.5520706
  13.8303806  77.7005999 101.9235348  12.9688285  77.9987252 102.2152086
  13.8566241  77.9176398 100.9916381  10.6465376  86.2448189  98.3309154
  11.1103721  86.5235892  97.5413776  10.3822174  85.3431634  98.1482245
   9.5834262  82.3671342  95.1398719  10.2858305  82.8192385  95.6072645
   9.2514890  81.7255160  95.7678612  17.3423405  87.9660133 103.1921133
  18.1640849  87.5640321 102.9103815  17.3385808  87.8628368 104.1437249
   5.2774341  80.9899474  97.3999329   4.4805504  81.1018168  97.9182825
   5.0499933  81.3286126  96.5340220  25.4329398  84.3098882  99.5406105
  24.6793107  83.7406280  99.3850109  25.5676940  84.2761546 100.4876740
  10.8228026  89.1812284  95.2160824  10.6873701  90.0263820  95.6445672
  11.3637839  89.3831562  94.4526758   4.2757424  86.6987722  95.7888749
   4.7881944  87.4930973  95.9394314   4.9280137  86.0014013  95.7222351
  14.1720490  72.7042846 103.7459718  13.8284759  73.5944488 103.6698828
  14.5399453  72.5144504 102.8829303   2.2406341  85.0276377  96.5648320
   3.0781563  85.4373385  96.3482028   2.4184608  84.0875819  96.5348514
  14.1370773  82.6951457  92.2532153  13.6217396  83.4656062  92.4920540
  13.8648081  82.0216593  92.8765214  11.7217884  77.5401158  97.3117391
  10.8659480  77.1508008  97.1323030  12.1344836  77.6193119  96.4517177
  13.2517030  75.0747501 101.7108951  12.7481826  75.0377636 100.8976756
  13.5447637  75.9840244 101.7705608   9.4959916  75.1586231 100.7175133
  10.3612913  74.9629040 100.3581022   9.5637425  74.9296583 101.6444489
  19.1105047  85.4483812  94.1885326  18.3334490  85.1094971  93.7440488
  19.7896528  85.4536435  93.5140291  13.9257076  80.5678549  94.0791934
  13.6207211  80.8824698  94.9302077  14.8787518  80.6459969  94.1219267
  12.3703508  86.7268773  95.7284888  11.8424869  85.9921532  95.4158125
  11.8691010  87.5043449  95.4824856  17.3496354  84.9217793 100.8451934
  16.6920028  85.6117055 100.9332063  18.1536753  85.3114225 101.1885921
   7.1022235  77.3888439  98.0891499   7.6765987  77.1663620  97.3564692
   7.6893218  77.4577133  98.8420101  16.1601813  83.2762166  98.8955876
  16.6733694  83.9092158  99.3977586  16.8103036  82.6763361  98.5299236
   7.4291822  79.4192900  92.1087385   6.5929135  79.7567586  92.4296659
   7.2896592  79.2841880  91.1714522   9.4044903  74.2629688  96.8166569
   8.7509315  73.9478705  96.1923184   9.3625377  73.6405428  97.5426392
  10.5156108  84.5448983  88.7319861   9.6083170  84.3138236  88.9311010
  11.0127140  83.7486602  88.9193843  13.4224187  93.2546490  91.6516547
  12.7485886  93.5578187  92.2601505  13.8090009  94.0575570  91.3022004
  12.6382643  80.7511621 101.1414217  11.7205205  80.9726568 100.9835905
  13.0542787  80.8257932 100.2825924  13.4217691  82.1503037  96.2716897
  14.1689510  82.6624434  95.9624019  13.6909281  81.8287090  97.1321290
  11.6944341  84.6461578  93.2543851  10.7855561  84.3620611  93.3516321
  11.7239425  85.0660656  92.3947158  16.9263609  88.2568167  97.0235019
  16.4725936  87.4159077  97.0800209  16.2957575  88.8929566  97.3609799
  15.8696528  79.1860153  98.2535686  15.1319285  78.6737539  98.5845929
  16.1223302  78.7460535  97.4418963  15.3696548  90.0944664  97.9584837
  15.6619522  90.6549721  97.2397202  15.8795169  90.3873225  98.7137996
  15.9708156  71.9636405  98.8477455  16.2767032  71.1033769  98.5603370
  16.6960760  72.5554025  98.6476449   2.2632512  82.3667092  97.2359053
   2.0656912  81.7736453  96.5110120   1.7079176  82.0619302  97.9534992
  10.2429235  82.2590198  99.3553646  10.2977845  81.3064035  99.2796123
   9.4320437  82.4149637  99.8394945  11.3920429  86.1870321  90.5931930
  10.9539859  85.4706180  90.1337567  12.1330870  86.4146436  90.0317021
   8.1821595  80.8767258  97.1144025   7.3689461  81.1761429  97.5209217
   8.6780589  80.4822947  97.8318508  10.3330173  90.8725015  99.0478290
  10.2906352  91.0985861  98.1186822  11.2492872  90.6388390  99.1964091
  13.7795807  81.3409083 105.9458919  14.1345195  81.5680556 106.8053385
  14.4267938  81.6727459 105.3236174  19.5093544  84.4627518  96.6508248
  19.3711443  84.6529114  95.7229437  19.1529763  85.2246901  97.1076299
   7.6735670  78.4485614 102.7305260   8.3135049  78.3074373 102.0328224
   6.8413201  78.1620127 102.3543862  19.5362924  86.5304045 101.6619520
  19.9699430  86.4379335 102.5102574  20.2494504  86.5061546 101.0239536
   8.4495974  87.7488044  98.8440253   9.2436572  87.2538364  98.6422828
   7.7387666  87.2205907  98.4807958   4.7578737  81.8931126  94.9200005
   3.8276326  81.8315581  95.1369968   4.8536209  81.3707079  94.1236647
   4.6764286  78.4185939  97.5078247   4.9371104  79.3331272  97.3987408
   5.4981459  77.9510381  97.6574860  20.3978473  86.5727746 104.1952405
  20.5914363  87.4773557 104.4411680  20.2979091  86.1135165 105.0290990
  12.0514784  76.4585637 106.6942732  11.4042699  77.1575586 106.6007209
  12.8215799  76.8921781 107.0618981  12.2278918  84.2966402 104.7539552
  13.1570978  84.4477561 104.5808519  11.8069948  84.3850422 103.8988199
  11.6215402  93.4226162  93.8663626  11.7967158  92.9514206  94.6809249
  10.9348190  94.0491929  94.0944887  12.5772465  87.6998669  99.9126928
  12.2422298  87.6599439 100.8084577  12.0776411  87.0343385  99.4397338
  15.5131657  85.0454703  90.1863987  14.8960827  84.3201531  90.0897040
  15.0448145  85.8064063  89.8431061   7.3030203  79.2640127  89.3085292
   6.4259669  79.1428928  88.9447538   7.7787956  78.4726206  89.0564180
  17.1703196  87.7193195 106.0783747  16.2829974  87.3819117 106.2010146
  17.7401747  86.9876227 106.3152513  10.4894129  91.6166418  96.5547812
   9.7061651  92.1588098  96.6486037  11.1886874  92.1340397  96.9542053
  13.7990779  77.4261047  99.1982017  14.2959478  76.6731010  98.8783088
  13.0277760  77.4625364  98.6325227  21.6520536  83.1301413 100.8400309
  21.6410412  84.0126128 100.4694242  20.7837916  82.7772964 100.6454846
  14.8820560  86.1832734  96.7720441  13.9476838  86.3034197  96.6025145
  15.0597228  85.2805201  96.5080451  10.3825748  79.5678430  98.9253702
  10.0123535  79.0149471  99.6134608  10.8784840  78.9636564  98.3728702
  18.2693111  82.0250054  97.3070475  18.7353563  82.8578045  97.2330778
  18.7200611  81.5595035  98.0115733  16.3369342  88.3693875  94.3056627
  16.6129186  88.2550470  95.2150501  15.4673841  87.9711360  94.2668800
  16.2409774  74.3930641 101.3461376  15.3272853  74.6234868 101.5143583
  16.6702875  74.4769085 102.1975409  16.0116232  82.5820533 103.8461270
  15.3587682  82.8296440 103.1913723  16.3896612  81.7684671 103.5123748
  12.9723406  92.6180226  97.9489441  13.1545801  91.8001882  98.4117193
  13.7956392  92.8347918  97.5114331  13.3065571  91.5448411  95.2104489
  13.8353338  91.0340866  94.5974651  13.5693791  91.2290941  96.0750022
   2.0308897  80.8581983  94.7498197   2.3262338  79.9492661  94.6965251
   1.1296932  80.8369722  94.4279200  13.9394975  92.5789247 101.5548606
  13.8146115  91.7778987 101.0459551  14.5974066  93.0735440 101.0662576
   5.5603144  78.9337979 100.7325746   4.8389729  79.5473947 100.5933219
   6.3496399  79.4695744 100.6542392  16.0029884  90.3798267 103.1828156
  15.0560219  90.2603618 103.1106482  16.3512657  89.4920765 103.2654417
   3.7596738  78.5396080  94.8737522   3.4309444  77.6593459  94.6912628
   4.1136109  78.4843749  95.7613912  13.0076317  90.1750983  99.3832508
  12.8601279  89.2467690  99.5640078  13.8329810  90.1971074  98.8989583
   6.8738561  78.8269050  95.2413000   7.2134634  79.3554971  94.5191608
   7.3210682  79.1649456  96.0171567  16.6110439  90.9979542 100.4697381
  17.5356986  90.7922403 100.3321832  16.4425742  90.7495943 101.3786722
   9.5682002  77.2106101 104.6916068   9.2278822  76.4113914 105.0936748
   8.8621008  77.5107812 104.1192901  10.2198474  74.2955413 103.1443391
  11.0424543  73.8215891 103.0222281  10.4636537  75.0745897 103.6442077
   8.8606708  77.3243672  93.4406293   9.5815071  77.7024924  92.9370010
   8.2372013  78.0432548  93.5441271  13.0037831  78.0288821  94.3764625
  13.2201446  78.9113459  94.0753453  12.5231898  77.6375034  93.6470267
   7.7437053  80.9874534 100.9535370   7.5981633  81.3014837 101.8459651
   7.2662256  81.6059434 100.4006268   9.6033436  77.9777082 101.0016259
   9.5895004  77.0818175 100.6648557  10.3205864  77.9847746 101.6354545
  11.4559566  78.4114422 103.0469387  11.1977344  79.3331493 103.0453717
  10.9244607  78.0144857 103.7369851  16.4005755  91.5165209  95.8259472
  16.5742633  90.9511632  95.0733325  16.8934646  92.3166104  95.6438962
   9.0070331  76.8591462  96.2703829   9.1286243  75.9308108  96.4694717
   8.7172374  76.8730148  95.3582145  11.8761522  74.5446373  99.4070549
  11.8983219  74.6085706  98.4522529  12.2929581  73.7050881  99.6011055
  22.2545146  84.2801632  97.4449772  22.6976292  83.5308957  97.0468895
  21.3771656  84.2711768  97.0623504  17.3880928  90.8331974  92.9256370
  18.0831832  91.4538666  93.1443685  17.7304078  89.9827325  93.2008748
  19.2872351  88.2831679  94.4543701  19.8123675  88.6218952  93.7293021
  19.1994703  87.3478694  94.2706836  19.0964132  85.7657049 107.0727628
  19.1462137  85.6007057 108.0143150  18.9878055  84.8984308 106.6825508
   7.9800390  88.4445595  94.3619717   8.1288511  89.1281059  93.7086389
   8.7866834  88.4250685  94.8769172  16.3867894  81.7487977 108.3886934
  17.2877757  81.6094442 108.0970932  16.4615869  81.9142432 109.3285112
  20.5982329  88.1853991 107.3169649  20.3067137  88.5483971 108.1533110
  19.9854460  87.4720999 107.1382981  21.7978011  85.7506870  99.8372219
  22.6324902  86.1896674 100.0009780  21.9337140  85.2745524  99.0180465
  18.8469517  83.3086605 105.7849707  19.3223638  83.5014252 104.9768559
  17.9235082  83.3645791 105.5393091   5.7353023  84.4710772  95.3680785
   5.4899065  83.5673102  95.5660996   5.9048938  84.4727923  94.4260263
  13.4249733  75.3434449 104.7505541  13.9431677  76.0795476 104.4252030
  13.0704866  75.6498442 105.5852300   5.0048671  80.2039130  92.8666947
   4.3117916  80.2783485  92.2106983   4.7600423  79.4399474  93.3888464
  13.6762327  71.7634731 100.2706438  13.9564081  71.0957920 100.8966864
  14.4612934  71.9563827  99.7581101  11.4795796  90.9393725  91.8331464
  10.9069763  91.5583912  91.3801936  12.0528590  91.4893087  92.3671386
  17.5471186  80.1852365 104.0178013  18.4988609  80.2850463 104.0390237
  17.3774636  79.3930634 104.5276097  15.5685565  77.2707949 104.2037414
  14.9735497  77.5512961 103.5083902  15.2835262  77.7601849 104.9754155
  14.6993056  91.2230875  92.9640046  15.6323729  91.1576437  93.1672922
  14.6116269  92.0587142  92.5054579  17.3281072  90.5396746  89.9243994
  17.2494704  90.2056609  90.8179752  18.1490739  91.0318514  89.9235466
  20.0259264  83.4058485 103.1320312  19.9935584  82.4674486 103.3179996
  20.6359887  83.4842522 102.3986137  11.8642594  82.2754538  89.1747516
  12.8101699  82.1460746  89.2435934  11.4856839  81.5369200  89.6516945
  20.1753752  80.1969528 103.1778596  19.6592801  79.4127985 102.9908524
  21.0593701  79.8688245 103.3425115  17.8364479  73.9410544  99.1374408
  17.6389300  73.6325632 100.0217740  18.4464185  74.6672183  99.2672338
  25.8435813  84.4674492 102.2726349  26.5739202  84.2059780 102.8334053
  25.2342759  83.7303214 102.3128417  23.9251111  82.6082354 102.8700800
  23.1984274  82.4738319 102.2617292  23.5098397  82.9159183 103.6757518
  10.0485512  80.2004514  89.1102402   9.1416967  79.9037627  89.1865115
  10.3261493  79.9034332  88.2436688  11.6647577  74.7441404  95.2646643
  10.8548306  74.3988489  95.6401889  12.3531994  74.4348948  95.8534255
  13.5938126  73.8219451  96.8870940  14.1469164  74.2414904  97.5460963
  13.8308212  72.8955199  96.9293896   8.8184296  77.0591450  89.2514381
   9.6803460  77.3846348  89.5110198   9.0034640  76.2722946  88.7387447
  16.9716933  75.9319976  96.3949604  16.3915602  76.5904780  96.0127656
  16.7052865  75.1097321  95.9837021  15.4220499  75.3325034  98.5970924
  15.9220277  75.4441568  97.7885243  16.0656107  75.0286087  99.2371733
  15.7541811  78.0920066  95.4505952  14.8667666  78.3769717  95.2326147
  16.1695800  77.9313830  94.6033229  19.1056347  78.1166587  99.1660291
  19.8816737  78.6063040  99.4384908  18.3804481  78.5424642  99.6232161
  21.5428905  78.8294207 100.2234232  22.1373396  78.5889943  99.5127540
  21.6155489  78.1101337 100.8507768  14.8985024  87.8564741  89.5453972
  15.6020874  88.0614744  90.1611628  14.1747673  88.4241503  89.8103056
  15.7282834  83.6074602  95.6656242  15.6718036  84.0643154  94.8263875
  16.2811177  82.8465287  95.4879085  19.5387640  79.3964334  96.4906362
  19.2824575  78.9960970  97.3214569  18.9140508  80.1108128  96.3656501
  23.8499978  82.1360408  98.9977653  23.2899536  82.2053597  99.7709215
  23.2443482  81.9601392  98.2777149  16.8071722  88.2947270  91.5952432
  17.6417326  87.8628469  91.4129907  16.6456065  88.1229284  92.5229327
  16.4617614  84.7979384  92.9608771  16.4066418  84.6323655  92.0197216
  15.8363669  85.5055417  93.1170961   9.7713739  74.2987493  92.5394090
   9.7592409  75.2429333  92.6962361  10.6637161  74.1157638  92.2453551
  13.5865859  70.8930269  96.7940027  12.8198255  70.3388756  96.9396709
  13.9976564  70.9652138  97.6554178  25.4355997  98.8116921 101.6907609
  26.0734407  98.6923669 100.9870949  25.3176840  99.7597765 101.7495561
  22.2445703  98.7644350 101.6269134  21.9064214  98.6485414 100.7389668
  23.1135471  98.3635515 101.6070140  18.1032519 100.6179826  97.6166025
  17.5397384 100.5269763  96.8482312  17.9884914  99.7979730  98.0968517
  23.6832077 104.2850794  92.9280489  23.0320057 104.8704874  92.5414503
  24.4776440 104.8156989  92.9875527  17.6087705 101.3739931  93.3267624
  18.3818581 100.8268918  93.1880500  17.9613103 102.2384180  93.5382085
  19.9453982  97.5332597  90.9586074  20.1979503  97.0114118  90.1969537
  19.0078541  97.3698742  91.0612757  24.9897265  96.5368375  98.7660817
  25.7760354  96.1187798  98.4151234  25.2535970  97.4414467  98.9342465
  25.1607343 101.9741226  93.4649474  24.5253176 102.0475852  94.1770378
  24.8304749 102.5634824  92.7868553  30.3905692  96.4743608  99.6693795
  31.1230864  95.9042825  99.9031625  29.6345048  96.0865209 100.1100301
  19.6650271  99.4360703  93.1610449  19.5486529  98.7605606  93.8291533
  19.7752531  98.9493077  92.3442602  22.0081812  98.8970850  96.8657138
  21.6440019  98.3701471  97.5770059  22.8648928  98.5069319  96.6923623
  27.9131113  90.1865183 104.1288404  27.5814437  91.0560594 103.9049619
  27.3176726  89.8701467 104.8082434  21.6487299  93.9260750  91.8618486
  21.8161701  94.7940986  92.2288957  21.4584468  94.0888031  90.9379776
  24.4062632 102.3877729 103.5284317  24.1063355 103.2902767 103.4200124
  24.0613692 102.1209912 104.3805470  17.8575114  98.8391525  99.5621021
  16.9325610  98.7067740  99.7698713  18.1059527  99.6185745 100.0590964
  27.8059776  94.9060269 101.2081754  26.8976653  94.8375677 100.9140515
  27.7547372  95.3832214 102.0363580  21.6276520  96.3818407  92.8465153
  21.5076145  96.8275458  93.6850634  20.9329108  96.7303725  92.2878691
  29.6721422  93.1076707 102.9859628  29.0295803  93.4009240 102.3399423
  29.1676351  92.9929628 103.7912825  27.3261586  96.8539880  93.6745487
  28.2379442  97.0867267  93.4993185  26.8171233  97.4376925  93.1120566
  21.9633424  96.2137115 104.6840337  22.8094619  96.6376529 104.8274986
  21.9032061  95.5570739 105.3778900  25.9331168 101.8365699 101.0659069
  25.3040031 102.0011413 100.3635137  25.5456830 102.2507308 101.8370033
  29.8120400 102.7720137  98.4203433  29.1271438 103.1519038  97.8700466
  29.8964250 103.3815463  99.1535380  25.1132869  93.8741483 106.3421510
  24.8693801  94.6283544 105.8055786  25.3892800  94.2526831 107.1768758
  27.0671332 100.4180096 105.0198776  27.2788227 101.0611856 104.3433157
  27.0201080  99.5842412 104.5520706  24.6697561  93.0297916 101.9235348
  23.8082040  93.3279170 102.2152086  24.6959995  93.2468315 100.9916381
  21.4859130 101.5740107  98.3309154  21.9497476 101.8527810  97.5413776
  21.2215928 100.6723551  98.1482245  20.4228016  97.6963259  95.1398719
  21.1252060  98.1484303  95.6072645  20.0908645  97.0547078  95.7678612
  28.1817160 103.2952051 103.1921133  29.0034604 102.8932238 102.9103815
  28.1779563 103.1920285 104.1437249  16.1168096  96.3191391  97.3999329
  15.3199259  96.4310085  97.9182825  15.8893688  96.6578043  96.5340220
  36.2723153  99.6390800  99.5406105  35.5186861  99.0698198  99.3850109
  36.4070694  99.6053464 100.4876740  21.6621781 104.5104202  95.2160824
  21.5267456 105.3555738  95.6445672  22.2031593 104.7123480  94.4526758
  15.1151178 102.0279640  95.7888749  15.6275699 102.8222890  95.9394314
  15.7673891 101.3305930  95.7222351  25.0114244  88.0334764 103.7459718
  24.6678514  88.9236405 103.6698828  25.3793207  87.8436421 102.8829303
  13.0800095 100.3568294  96.5648320  13.9175317 100.7665303  96.3482028
  13.2578363  99.4167736  96.5348514  24.9764527  98.0243375  92.2532153
  24.4611151  98.7947980  92.4920540  24.7041836  97.3508511  92.8765214
  22.5611638  92.8693076  97.3117391  21.7053235  92.4799926  97.1323030
  22.9738590  92.9485036  96.4517177  24.0910785  90.4039419 101.7108951
  23.5875580  90.3669554 100.8976756  24.3841392  91.3132162 101.7705608
  20.3353671  90.4878149 100.7175133  21.2006668  90.2920957 100.3581022
  20.4031180  90.2588500 101.6444489  29.9498801 100.7775730  94.1885326
  29.1728244 100.4386889  93.7440488  30.6290282 100.7828353  93.5140291
  24.7650830  95.8970467  94.0791934  24.4600966  96.2116616  94.9302077
  25.7181272  95.9751887  94.1219267  23.2097262 102.0560690  95.7284888
  22.6818624 101.3213450  95.4158125  22.7084765 102.8335367  95.4824856
  28.1890108 100.2509711 100.8451934  27.5313783 100.9408972 100.9332063
  28.9930507 100.6406143 101.1885921  17.9415990  92.7180357  98.0891499
  18.5159742  92.4955538  97.3564692  18.5286972  92.7869051  98.8420101
  26.9995567  98.6054083  98.8955876  27.5127449  99.2384075  99.3977586
  27.6496791  98.0055279  98.5299236  18.2685577  94.7484818  92.1087385
  17.4322889  95.0859504  92.4296659  18.1290347  94.6133797  91.1714522
  20.2438658  89.5921605  96.8166569  19.5903070  89.2770623  96.1923184
  20.2019132  88.9697346  97.5426392  21.3549862  99.8740901  88.7319861
  20.4476924  99.6430154  88.9311010  21.8520894  99.0778520  88.9193843
  24.2617941 108.5838408  91.6516547  23.5879640 108.8870105  92.2601505
  24.6483763 109.3867488  91.3022004  23.4776398  96.0803539 101.1414217
  22.5598959  96.3018486 100.9835905  23.8936542  96.1549849 100.2825924
  24.2611446  97.4794955  96.2716897  25.0083265  97.9916352  95.9624019
  24.5303035  97.1579007  97.1321290  22.5338096  99.9753495  93.2543851
  21.6249315  99.6912528  93.3516321  22.5633180 100.3952574  92.3947158
  27.7657363 103.5860085  97.0235019  27.3119690 102.7450995  97.0800209
  27.1351330 104.2221483  97.3609799  26.7090283  94.5152071  98.2535686
  25.9713040  94.0029457  98.5845929  26.9617056  94.0752453  97.4418963
  26.2090302 105.4236582  97.9584837  26.5013277 105.9841639  97.2397202
  26.7188923 105.7165143  98.7137996  26.8101910  87.2928323  98.8477455
  27.1160787  86.4325686  98.5603370  27.5354515  87.8845943  98.6476449
  13.1026266  97.6959010  97.2359053  12.9050666  97.1028370  96.5110120
  12.5472930  97.3911220  97.9534992  21.0822990  97.5882116  99.3553646
  21.1371600  96.6355952  99.2796123  20.2714192  97.7441555  99.8394945
  22.2314184 101.5162239  90.5931930  21.7933614 100.7998098  90.1337567
  22.9724624 101.7438354  90.0317021  19.0215350  96.2059176  97.1144025
  18.2083215  96.5053346  97.5209217  19.5174344  95.8114865  97.8318508
  21.1723928 106.2016933  99.0478290  21.1300106 106.4277779  98.1186822
  22.0886627 105.9680307  99.1964091  24.6189561  96.6701000 105.9458919
  24.9738949  96.8972473 106.8053385  25.2661693  97.0019377 105.3236174
  30.3487298  99.7919436  96.6508248  30.2105197  99.9821032  95.7229437
  29.9923517 100.5538819  97.1076299  18.5129425  93.7777531 102.7305260
  19.1528804  93.6366290 102.0328224  17.6806955  93.4912045 102.3543862
  30.3756678 101.8595963 101.6619520  30.8093185 101.7671252 102.5102574
  31.0888259 101.8353464 101.0239536  19.2889728 103.0779962  98.8440253
  20.0830327 102.5830282  98.6422828  18.5781421 102.5497825  98.4807958
  15.5972492  97.2223043  94.9200005  14.6670080  97.1607499  95.1369968
  15.6929964  96.6998996  94.1236647  15.5158041  93.7477856  97.5078247
  15.7764858  94.6623190  97.3987408  16.3375213  93.2802299  97.6574860
  31.2372228 101.9019664 104.1952405  31.4308118 102.8065474 104.4411680
  31.1372846 101.4427083 105.0290990  22.8908538  91.7877554 106.6942732
  22.2436453  92.4867504 106.6007209  23.6609554  92.2213698 107.0618981
  23.0672673  99.6258319 104.7539552  23.9964733  99.7769479 104.5808519
  22.6463703  99.7142340 103.8988199  22.4609156 108.7518080  93.8663626
  22.6360912 108.2806123  94.6809249  21.7741944 109.3783846  94.0944887
  23.4166220 103.0290586  99.9126928  23.0816052 102.9891356 100.8084577
  22.9170165 102.3635302  99.4397338  26.3525411 100.3746621  90.1863987
  25.7354582  99.6493449  90.0897040  25.8841900 101.1355981  89.8431061
  18.1423957  94.5932045  89.3085292  17.2653423  94.4720846  88.9447538
  18.6181710  93.8018123  89.0564180  28.0096950 103.0485113 106.0783747
  27.1223729 102.7111035 106.2010146  28.5795501 102.3168144 106.3152513
  21.3287883 106.9458335  96.5547812  20.5455405 107.4880016  96.6486037
  22.0280628 107.4632315  96.9542053  24.6384533  92.7552965  99.1982017
  25.1353233  92.0022927  98.8783088  23.8671515  92.7917282  98.6325227
  32.4914291  98.4593330 100.8400309  32.4804167  99.3418046 100.4694242
  31.6231670  98.1064881 100.6454846  25.7214314 101.5124652  96.7720441
  24.7870593 101.6326115  96.6025145  25.8990982 100.6097119  96.5080451
  21.2219502  94.8970348  98.9253702  20.8517290  94.3441388  99.6134608
  21.7178595  94.2928481  98.3728702  29.1086865  97.3541971  97.3070475
  29.5747318  98.1869963  97.2330778  29.5594366  96.8886953  98.0115733
  27.1763096 103.6985793  94.3056627  27.4522940 103.5842387  95.2150501
  26.3067595 103.3003278  94.2668800  27.0803528  89.7222558 101.3461376
  26.1666608  89.9526785 101.5143583  27.5096630  89.8061002 102.1975409
  26.8509987  97.9112450 103.8461270  26.1981437  98.1588358 103.1913723
  27.2290366  97.0976589 103.5123748  23.8117160 107.9472144  97.9489441
  23.9939555 107.1293799  98.4117193  24.6350146 108.1639836  97.5114331
  24.1459326 106.8740329  95.2104489  24.6747092 106.3632783  94.5974651
  24.4087546 106.5582859  96.0750022  12.8702651  96.1873900  94.7498197
  13.1656092  95.2784579  94.6965251  11.9690687  96.1661640  94.4279200
  24.7788730 107.9081164 101.5548606  24.6539869 107.1070904 101.0459551
  25.4367821 108.4027358 101.0662576  16.3996898  94.2629897 100.7325746
  15.6783484  94.8765865 100.5933219  17.1890154  94.7987662 100.6542392
  26.8423638 105.7090184 103.1828156  25.8953974 105.5895536 103.1106482
  27.1906411 104.8212682 103.2654417  14.5990493  93.8687998  94.8737522
  14.2703199  92.9885377  94.6912628  14.9529863  93.8135667  95.7613912
  23.8470071 105.5042901  99.3832508  23.6995034 104.5759608  99.5640078
  24.6723565 105.5262991  98.8989583  17.7132316  94.1560968  95.2413000
  18.0528388  94.6846889  94.5191608  18.1604436  94.4941374  96.0171567
  27.4504193 106.3271459 100.4697381  28.3750741 106.1214321 100.3321832
  27.2819497 106.0787861 101.3786722  20.4075757  92.5398018 104.6916068
  20.0672577  91.7405832 105.0936748  19.7014763  92.8399729 104.1192901
  21.0592228  89.6247331 103.1443391  21.8818298  89.1507809 103.0222281
  21.3030292  90.4037815 103.6442077  19.7000463  92.6535589  93.4406293
  20.4208825  93.0316842  92.9370010  19.0765767  93.3724466  93.5441271
  23.8431586  93.3580738  94.3764625  24.0595200  94.2405376  94.0753453
  23.3625653  92.9666952  93.6470267  18.5830807  96.3166452 100.9535370
  18.4375388  96.6306755 101.8459651  18.1056011  96.9351352 100.4006268
  20.4427190  93.3069000 101.0016259  20.4288759  92.4110093 100.6648557
  21.1599618  93.3139663 101.6354545  22.2953321  93.7406340 103.0469387
  22.0371099  94.6623410 103.0453717  21.7638361  93.3436774 103.7369851
  27.2399510 106.8457127  95.8259472  27.4136387 106.2803549  95.0733325
  27.7328401 107.6458022  95.6438962  19.8464086  92.1883380  96.2703829
  19.9679997  91.2600026  96.4694717  19.5566128  92.2022066  95.3582145
  22.7155276  89.8738290  99.4070549  22.7376973  89.9377623  98.4522529
  23.1323335  89.0342799  99.6011055  33.0938901  99.6093550  97.4449772
  33.5370047  98.8600875  97.0468895  32.2165411  99.6003686  97.0623504
  28.2274682 106.1623891  92.9256370  28.9225587 106.7830584  93.1443685
  28.5697832 105.3119242  93.2008748  30.1266105 103.6123597  94.4543701
  30.6517429 103.9510870  93.7293021  30.0388458 102.6770612  94.2706836
  29.9357886 101.0948967 107.0727628  29.9855891 100.9298974 108.0143150
  29.8271810 100.2276226 106.6825508  18.8194145 103.7737512  94.3619717
  18.9682265 104.4572977  93.7086389  19.6260588 103.7542603  94.8769172
  27.2261649  97.0779895 108.3886934  28.1271511  96.9386360 108.0970932
  27.3009623  97.2434350 109.3285112  31.4376083 103.5145908 107.3169649
  31.1460891 103.8775889 108.1533110  30.8248214 102.8012917 107.1382981
  32.6371765 101.0798788  99.8372219  33.4718657 101.5188592 100.0009780
  32.7730894 100.6037441  99.0180465  29.6863271  98.6378523 105.7849707
  30.1617393  98.8306169 104.9768559  28.7628837  98.6937709 105.5393091
  16.5746778  99.8002690  95.3680785  16.3292820  98.8965020  95.5660996
  16.7442692  99.8019841  94.4260263  24.2643488  90.6726366 104.7505541
  24.7825432  91.4087393 104.4252030  23.9098621  90.9790360 105.5852300
  15.8442425  95.5331048  92.8666947  15.1511670  95.6075403  92.2106983
  15.5994177  94.7691391  93.3888464  24.5156082  87.0926649 100.2706438
  24.7957836  86.4249838 100.8966864  25.3006689  87.2855745  99.7581101
  22.3189550 106.2685643  91.8331464  21.7463518 106.8875830  91.3801936
  22.8922344 106.8185005  92.3671386  28.3864940  95.5144283 104.0178013
  29.3382363  95.6142381 104.0390237  28.2168391  94.7222552 104.5276097
  26.4079320  92.5999866 104.2037414  25.8129252  92.8804879 103.5083902
  26.1229016  93.0893767 104.9754155  25.5386810 106.5522793  92.9640046
  26.4717483 106.4868355  93.1672922  25.4510023 107.3879060  92.5054579
  28.1674827 105.8688663  89.9243994  28.0888458 105.5348527  90.8179752
  28.9884494 106.3610431  89.9235466  30.8653018  98.7350403 103.1320312
  30.8329338  97.7966403 103.3179996  31.4753642  98.8134439 102.3986137
  22.7036349  97.6046456  89.1747516  23.6495454  97.4752664  89.2435934
  22.3250594  96.8661118  89.6516945  31.0147507  95.5261446 103.1778596
  30.4986555  94.7419903 102.9908524  31.8987455  95.1980163 103.3425115
  28.6758233  89.2702462  99.1374408  28.4783055  88.9617550 100.0217740
  29.2857939  89.9964101  99.2672338  36.6829568  99.7966410 102.2726349
  37.4132956  99.5351698 102.8334053  36.0736513  99.0595131 102.3128417
  34.7644865  97.9374272 102.8700800  34.0378029  97.8030237 102.2617292
  34.3492152  98.2451101 103.6757518  20.8879266  95.5296432  89.1102402
  19.9810721  95.2329545  89.1865115  21.1655247  95.2326250  88.2436688
  22.5041332  90.0733322  95.2646643  21.6942060  89.7280407  95.6401889
  23.1925749  89.7640866  95.8534255  24.4331880  89.1511369  96.8870940
  24.9862919  89.5706822  97.5460963  24.6701966  88.2247117  96.9293896
  19.6578051  92.3883367  89.2514381  20.5197215  92.7138266  89.5110198
  19.8428395  91.6014863  88.7387447  27.8110687  91.2611894  96.3949604
  27.2309356  91.9196698  96.0127656  27.5446620  90.4389238  95.9837021
  26.2614254  90.6616951  98.5970924  26.7614032  90.7733486  97.7885243
  26.9049861  90.3578004  99.2371733  26.5935565  93.4211984  95.4505952
  25.7061420  93.7061635  95.2326147  27.0089554  93.2605748  94.6033229
  29.9450101  93.4458505  99.1660291  30.7210491  93.9354958  99.4384908
  29.2198236  93.8716559  99.6232161  32.3822660  94.1586124 100.2234232
  32.9767151  93.9181860  99.5127540  32.4549244  93.4393255 100.8507768
  25.7378779 103.1856659  89.5453972  26.4414629 103.3906661  90.1611628
  25.0141427 103.7533421  89.8103056  26.5676589  98.9366520  95.6656242
  26.5111790  99.3935071  94.8263875  27.1204931  98.1757205  95.4879085
  30.3781395  94.7256252  96.4906362  30.1218329  94.3252888  97.3214569
  29.7534263  95.4400046  96.3656501  34.6893733  97.4652325  98.9977653
  34.1293291  97.5345514  99.7709215  34.0837236  97.2893310  98.2777149
  27.6465476 103.6239188  91.5952432  28.4811080 103.1920386  91.4129907
  27.4849819 103.4521202  92.5229327  27.3011368 100.1271301  92.9608771
  27.2460172  99.9615573  92.0197216  26.6757424 100.8347334  93.1170961
  20.6107494  89.6279410  92.5394090  20.5986164  90.5721250  92.6962361
  21.5030916  89.4449556  92.2453551  24.4259613  86.2222187  96.7940027
  23.6592009  85.6680674  96.9396709  24.8370318  86.2944056  97.6554178
  36.2749751 114.1408839 101.6907609  36.9128161 114.0215586 100.9870949
  36.1570594 115.0889683 101.7495561  33.0839457 114.0936267 101.6269134
  32.7457969 113.9777332 100.7389668  33.9529226 113.6927432 101.6070140
  30.7847737 112.8624515  90.9586074  31.0373258 112.3406036  90.1969537
  29.8472296 112.6990660  91.0612757  35.8291020 111.8660293  98.7660817
  36.6154109 111.4479716  98.4151234  36.0929724 112.7706385  98.9342465
  41.2299447 111.8035526  99.6693795  41.9624619 111.2334743  99.9031625
  40.4738802 111.4157127 100.1100301  32.8475567 114.2262768  96.8657138
  32.4833774 113.6993389  97.5770059  33.7042682 113.8361237  96.6923623
  38.7524867 105.5157100 104.1288404  38.4208192 106.3852511 103.9049619
  38.1570481 105.1993384 104.8082434  32.4881053 109.2552667  91.8618486
  32.6555456 110.1232904  92.2288957  32.2978223 109.4179949  90.9379776
  38.6453530 110.2352186 101.2081754  37.7370408 110.1667595 100.9140515
  38.5941126 110.7124131 102.0363580  32.4670274 111.7110325  92.8465153
  32.3469900 112.1567376  93.6850634  31.7722863 112.0595643  92.2878691
  40.5115177 108.4368625 102.9859628  39.8689557 108.7301158 102.3399423
  40.0070105 108.3221545 103.7912825  38.1655341 112.1831798  93.6745487
  39.0773197 112.4159185  93.4993185  37.6564988 112.7668842  93.1120566
  32.8027178 111.5429033 104.6840337  33.6488373 111.9668446 104.8274986
  32.7425816 110.8862657 105.3778900  35.9526624 109.2033401 106.3421510
  35.7087555 109.9575462 105.8055786  36.2286554 109.5818749 107.1768758
  37.9065086 115.7472013 105.0198776  38.1181982 116.3903773 104.3433157
  37.8594835 114.9134330 104.5520706  35.5091315 108.3589834 101.9235348
  34.6475794 108.6571088 102.2152086  35.5353750 108.5760233 100.9916381
  31.2621771 113.0255177  95.1398719  31.9645814 113.4776221  95.6072645
  30.9302399 112.3838996  95.7678612  26.9561850 111.6483309  97.3999329
  26.1593013 111.7602003  97.9182825  26.7287442 111.9869961  96.5340220
  47.1116907 114.9682717  99.5406105  46.3580616 114.3990115  99.3850109
  47.2464449 114.9345382 100.4876740  35.8507999 103.3626681 103.7459718
  35.5072268 104.2528323 103.6698828  36.2186962 103.1728339 102.8829303
  35.8158282 113.3535293  92.2532153  35.3004905 114.1239897  92.4920540
  35.5435590 112.6800429  92.8765214  33.4005393 108.1984993  97.3117391
  32.5446989 107.8091844  97.1323030  33.8132344 108.2776954  96.4517177
  34.9304539 105.7331337 101.7108951  34.4269335 105.6961472 100.8976756
  35.2235146 106.6424079 101.7705608  31.1747425 105.8170066 100.7175133
  32.0400422 105.6212875 100.3581022  31.2424934 105.5880418 101.6444489
  40.7892556 116.1067647  94.1885326  40.0121999 115.7678807  93.7440488
  41.4684037 116.1120270  93.5140291  35.6044585 111.2262385  94.0791934
  35.2994720 111.5408534  94.9302077  36.5575027 111.3043805  94.1219267
  39.0283863 115.5801628 100.8451934  38.3707537 116.2700890 100.9332063
  39.8324262 115.9698060 101.1885921  28.7809744 108.0472274  98.0891499
  29.3553496 107.8247456  97.3564692  29.3680727 108.1160969  98.8420101
  37.8389322 113.9346001  98.8955876  38.3521203 114.5675993  99.3977586
  38.4890545 113.3347197  98.5299236  29.1079331 110.0776735  92.1087385
  28.2716644 110.4151422  92.4296659  28.9684101 109.9425715  91.1714522
  31.0832412 104.9213523  96.8166569  30.4296824 104.6062540  96.1923184
  31.0412886 104.2989264  97.5426392  34.3170152 111.4095457 101.1414217
  33.3992714 111.6310404 100.9835905  34.7330296 111.4841767 100.2825924
  35.1005200 112.8086872  96.2716897  35.8477019 113.3208270  95.9624019
  35.3696790 112.4870925  97.1321290  37.5484037 109.8443989  98.2535686
  36.8106794 109.3321375  98.5845929  37.8010811 109.4044370  97.4418963
  37.6495665 102.6220241  98.8477455  37.9554541 101.7617604  98.5603370
  38.3748269 103.2137861  98.6476449  31.9216744 112.9174034  99.3553646
  31.9765354 111.9647870  99.2796123  31.1107946 113.0733473  99.8394945
  29.8609104 111.5351093  97.1144025  29.0476970 111.8345264  97.5209217
  30.3568098 111.1406782  97.8318508  35.4583316 111.9992918 105.9458919
  35.8132704 112.2264391 106.8053385  36.1055447 112.3311295 105.3236174
  41.1881053 115.1211354  96.6508248  41.0498951 115.3112950  95.7229437
  40.8317272 115.8830737  97.1076299  29.3523179 109.1069449 102.7305260
  29.9922558 108.9658208 102.0328224  28.5200710 108.8203962 102.3543862
  41.2150433 117.1887881 101.6619520  41.6486939 117.0963170 102.5102574
  41.9282013 117.1645381 101.0239536  26.3551795 109.0769774  97.5078247
  26.6158613 109.9915107  97.3987408  27.1768968 108.6094217  97.6574860
  33.7302293 107.1169472 106.6942732  33.0830208 107.8159422 106.6007209
  34.5003308 107.5505616 107.0618981  28.9817712 109.9223963  89.3085292
  28.1047178 109.8012764  88.9447538  29.4575465 109.1310041  89.0564180
  35.4778288 108.0844883  99.1982017  35.9746987 107.3314845  98.8783088
  34.7065269 108.1209199  98.6325227  43.3308045 113.7885248 100.8400309
  43.3197921 114.6709964 100.4694242  42.4625425 113.4356799 100.6454846
  32.0613257 110.2262266  98.9253702  31.6911044 109.6733306  99.6134608
  32.5572349 109.6220399  98.3728702  39.9480620 112.6833889  97.3070475
  40.4141072 113.5161881  97.2330778  40.3988120 112.2178871  98.0115733
  37.9197283 105.0514476 101.3461376  37.0060362 105.2818703 101.5143583
  38.3490384 105.1352920 102.1975409  37.6903741 113.2404368 103.8461270
  37.0375191 113.4880275 103.1913723  38.0684121 112.4268506 103.5123748
  27.2390652 109.5921815 100.7325746  26.5177238 110.2057782 100.5933219
  28.0283908 110.1279579 100.6542392  25.4384247 109.1979916  94.8737522
  25.1096953 108.3177295  94.6912628  25.7923618 109.1427584  95.7613912
  28.5526070 109.4852885  95.2413000  28.8922143 110.0138807  94.5191608
  28.9998191 109.8233292  96.0171567  31.2469511 107.8689936 104.6916068
  30.9066331 107.0697749 105.0936748  30.5408517 108.1691647 104.1192901
  31.8985983 104.9539249 103.1443391  32.7212052 104.4799727 103.0222281
  32.1424046 105.7329732 103.6442077  30.5394217 107.9827507  93.4406293
  31.2602580 108.3608760  92.9370010  29.9159521 108.7016384  93.5441271
  34.6825340 108.6872656  94.3764625  34.8988955 109.5697294  94.0753453
  34.2019407 108.2958869  93.6470267  29.4224562 111.6458369 100.9535370
  29.2769142 111.9598672 101.8459651  28.9449765 112.2643270 100.4006268
  31.2820945 108.6360917 101.0016259  31.2682513 107.7402011 100.6648557
  31.9993373 108.6431581 101.6354545  33.1347075 109.0698257 103.0469387
  32.8764853 109.9915328 103.0453717  32.6032116 108.6728692 103.7369851
  30.6857840 107.5175297  96.2703829  30.8073752 106.5891944  96.4694717
  30.3959883 107.5313983  95.3582145  33.5549031 105.2030208  99.4070549
  33.5770728 105.2669541  98.4522529  33.9717090 104.3634717  99.6011055
  43.9332655 114.9385467  97.4449772  44.3763801 114.1892793  97.0468895
  43.0559165 114.9295604  97.0623504  40.7751641 116.4240884 107.0727628
  40.8249646 116.2590892 108.0143150  40.6665564 115.5568143 106.6825508
  38.0655403 112.4071812 108.3886934  38.9665266 112.2678277 108.0970932
  38.1403378 112.5726267 109.3285112  43.4765520 116.4090706  99.8372219
  44.3112411 116.8480510 100.0009780  43.6124649 115.9329359  99.0180465
  40.5257026 113.9670441 105.7849707  41.0011147 114.1598087 104.9768559
  39.6022591 114.0229626 105.5393091  35.1037242 106.0018284 104.7505541
  35.6219186 106.7379311 104.4252030  34.7492375 106.3082277 105.5852300
  26.6836180 110.8622965  92.8666947  25.9905425 110.9367320  92.2106983
  26.4387932 110.0983309  93.3888464  35.3549836 102.4218567 100.2706438
  35.6351590 101.7541756 100.8966864  36.1400443 102.6147662  99.7581101
  39.2258695 110.8436201 104.0178013  40.1776118 110.9434298 104.0390237
  39.0562145 110.0514469 104.5276097  37.2473074 107.9291784 104.2037414
  36.6523006 108.2096797 103.5083902  36.9622771 108.4185685 104.9754155
  41.7046773 114.0642320 103.1320312  41.6723093 113.1258321 103.3179996
  42.3147396 114.1426357 102.3986137  33.5430103 112.9338373  89.1747516
  34.4889208 112.8044581  89.2435934  33.1644348 112.1953035  89.6516945
  41.8541261 110.8553364 103.1778596  41.3380310 110.0711820 102.9908524
  42.7381210 110.5272080 103.3425115  39.5151988 104.5994379  99.1374408
  39.3176809 104.2909468 100.0217740  40.1251694 105.3256018  99.2672338
  47.5223322 115.1258327 102.2726349  48.2526711 114.8643615 102.8334053
  46.9130268 114.3887049 102.3128417  45.6038620 113.2666190 102.8700800
  44.8771783 113.1322155 102.2617292  45.1885906 113.5743018 103.6757518
  31.7273021 110.8588350  89.1102402  30.8204476 110.5621462  89.1865115
  32.0049002 110.5618168  88.2436688  33.3435086 105.4025239  95.2646643
  32.5335815 105.0572324  95.6401889  34.0319503 105.0932783  95.8534255
  35.2725635 104.4803286  96.8870940  35.8256673 104.8998740  97.5460963
  35.5095721 103.5539034  96.9293896  30.4971805 107.7175285  89.2514381
  31.3590969 108.0430183  89.5110198  30.6822149 106.9306781  88.7387447
  38.6504442 106.5903811  96.3949604  38.0703111 107.2488615  96.0127656
  38.3840374 105.7681156  95.9837021  37.1008008 105.9908869  98.5970924
  37.6007786 106.1025404  97.7885243  37.7443616 105.6869922  99.2371733
  37.4329320 108.7503902  95.4505952  36.5455175 109.0353552  95.2326147
  37.8483309 108.5897665  94.6033229  40.7843856 108.7750423  99.1660291
  41.5604246 109.2646875  99.4384908  40.0591990 109.2008477  99.6232161
  43.2216414 109.4878042 100.2234232  43.8160905 109.2473778  99.5127540
  43.2942998 108.7685173 100.8507768  37.4070343 114.2658438  95.6656242
  37.3505545 114.7226989  94.8263875  37.9598686 113.5049122  95.4879085
  41.2175149 110.0548170  96.4906362  40.9612084 109.6544805  97.3214569
  40.5928017 110.7691964  96.3656501  45.5287487 112.7944243  98.9977653
  44.9687045 112.8637432  99.7709215  44.9230991 112.6185227  98.2777149
  38.1405123 115.4563219  92.9608771  38.0853927 115.2907490  92.0197216
  37.5151178 116.1639252  93.1170961  31.4501248 104.9571328  92.5394090
  31.4379918 105.9013168  92.6962361  32.3424670 104.7741473  92.2453551
  35.2653368 101.5514105  96.7940027  34.4985763 100.9972591  96.9396709
  35.6764073 101.6235973  97.6554178  48.4889419 117.9512158  98.8477455
  48.7948296 117.0909522  98.5603370  49.2142024 118.5429779  98.6476449
  46.1943591 117.7510484 100.2706438  46.4745345 117.0833673 100.8966864
  46.9794198 117.9439580  99.7581101  50.3545742 119.9286297  99.1374408
  50.1570564 119.6201385 100.0217740  50.9645448 120.6547936  99.2672338
  46.1047122 116.8806022  96.7940027  45.3379518 116.3264509  96.9396709
  46.5157827 116.9527891  97.6554178   3.7541891  30.6577169  86.2651411
   3.0005599  30.0884567  86.1095416   3.8889432  30.6239834  87.2122046
   4.1648306  30.8152779  88.9971656   4.8951694  30.5538067  89.5579359
   3.5555251  30.0781501  89.0373724   2.2463603  28.9560642  89.5946107
   1.5196766  28.8216607  88.9862599   1.8310890  29.2637470  90.4002825
   2.1712471  28.4838695  85.7222960   1.6112028  28.5531884  86.4954522
   1.5655974  28.3079679  85.0022456   3.7568489  45.1595209  88.4152916
   4.3946899  45.0401956  87.7116256   3.6389332  46.1076053  88.4740868
   1.0477978  46.2657489  94.3100646   1.0366619  45.8710287  93.4381149
   1.2098618  45.5323561  94.9034417   2.0044570  50.6329081  79.6525796
   1.3532549  51.2183161  79.2659810   2.7988932  51.1635276  79.7120834
   3.3109757  42.8846663  85.4906124   4.0972847  42.4666086  85.1396541
   3.5748462  43.7892755  85.6587772   3.4819835  48.3219513  80.1894780
   2.8465668  48.3954139  80.9015685   3.1517241  48.9113112  79.5113860
   8.7118185  42.8221896  86.3939102   9.4443357  42.2521113  86.6276932
   7.9557540  42.4343496  86.8345608   6.2343605  36.5343470  90.8533711
   5.9026930  37.4038881  90.6294926   5.6389218  36.2179754  91.5327741
   2.7275124  48.7356016  90.2529623   2.4275848  49.6381055  90.1445431
   2.3826184  48.4688199  91.1050776   6.1272268  41.2538556  87.9327061
   5.2189146  41.1853964  87.6385822   6.0759864  41.7310501  88.7608886
   7.9933915  39.4554994  89.7104935   7.3508295  39.7487528  89.0644729
   7.4888843  39.3407915  90.5158131   5.6474078  43.2018168  80.3990794
   6.5591934  43.4345554  80.2238491   5.1383725  43.7855212  79.8365873
   3.9314846  47.6242795  94.0352087   4.3398202  47.1825206  93.2906719
   3.2092107  47.0495423  94.2886279   4.2543661  48.1843986  87.7904375
   3.6252523  48.3489700  87.0880443   3.8669323  48.5985596  88.5615339
   8.1332893  49.1198424  85.1448739   7.4483931  49.4997325  84.5945772
   8.2176742  49.7293751  85.8780687   3.4345361  40.2219771  93.0666817
   3.1906293  40.9761831  92.5301093   3.7105292  40.6005118  93.9014064
   5.3883824  46.7658383  91.7444083   5.6000719  47.4090143  91.0678464
   5.3413572  45.9320699  91.2766013   2.9910053  39.3776204  88.6480655
   2.1294532  39.6757457  88.9397392   3.0172488  39.5946602  87.7161687
   6.5029652  49.6430338  89.9166440   7.3247096  49.2410526  89.6349122
   6.4992055  49.5398573  90.8682556  14.5935645  45.9869087  86.2651411
  13.8399354  45.4176485  86.1095416  14.7283186  45.9531751  87.2122046
   1.6102750  51.4806056  96.0706473   1.1666604  50.6942434  95.7527377
   2.2719963  51.6685206  95.4050364   3.7083988  51.7608856  94.0987874
   3.6902463  52.5817737  93.6068143   4.6303908  51.6362931  94.3238015
   3.3326737  34.3813051  90.4705024   2.9891006  35.2714693  90.3944135
   3.7005699  34.1914709  89.6074609   3.2977019  44.3721662  78.9777459
   2.7823643  45.1426267  79.2165847   3.0254328  43.6986798  79.6010521
   2.4123277  36.7517706  88.4354258   1.9088073  36.7147841  87.6222063
   2.7053884  37.6610449  88.4950914   8.2711294  47.1254017  80.9130633
   7.4940736  46.7865176  80.4685795   8.9502775  47.1306640  80.2385598
   3.0863323  42.2448754  80.8037241   2.7813458  42.5594903  81.6547384
   4.0393765  42.3230174  80.8464574   1.5309754  48.4038978  82.4530195
   1.0031116  47.6691737  82.1403432   1.0297257  49.1813654  82.2070163
   6.5102601  46.5987998  87.5697241   5.8526275  47.2887259  87.6577370
   7.3143000  46.9884430  87.9131227   5.3208059  44.9532371  85.6201183
   5.8339941  45.5862363  86.1222892   5.9709283  44.3533566  85.2544543
   2.5830434  54.9316695  78.3761854   1.9092132  55.2348392  78.9846812
   2.9696256  55.7345775  78.0267311   1.7988890  42.4281826  87.8659523
   0.8811452  42.6496773  87.7081211   2.2149034  42.5028137  87.0071230
   2.5823938  43.8273242  82.9962203   3.3295757  44.3394639  82.6869325
   2.8515527  43.5057295  83.8566597   6.0869856  49.9338372  83.7480325
   5.6332183  49.0929282  83.8045516   5.4563822  50.5699771  84.0855105
   5.0302775  40.8630358  84.9780993   4.2925532  40.3507744  85.3091235
   5.2829549  40.4230740  84.1664270   4.5302795  51.7714869  84.6830143
   4.8225769  52.3319926  83.9642509   5.0401415  52.0643430  85.4383303
   5.1314402  33.6406610  85.5722762   5.4373279  32.7803974  85.2848677
   5.8567007  34.2324230  85.3721756   2.9402054  43.0179287  92.6704226
   3.2951441  43.2450761  93.5298692   3.5874185  43.3497664  92.0481481
   8.6699791  46.1397723  83.3753555   8.5317689  46.3299319  82.4474744
   8.3136010  46.9017106  83.8321606   8.6969170  48.2074250  88.3864826
   9.1305677  48.1149539  89.2347880   9.4100751  48.1831751  87.7484842
   2.4297065  51.8076344  89.9197927   2.4834087  52.3767281  90.6875643
   1.5611847  51.9778230  89.5551964   9.5584720  48.2497951  90.9197712
   9.7520610  49.1543762  91.1656987   9.4585338  47.7905370  91.7536297
   1.2121031  38.1355842  93.4188039   0.5648946  38.8345791  93.3252515
   1.9822046  38.5691986  93.7864287   4.6199829  48.4004694  96.4938592
   4.4685335  48.1715245  95.5768676   4.6104508  49.3575295  96.5069937
   1.3885165  45.9736607  91.4784859   2.3177225  46.1247766  91.3053826
   0.9676195  46.0620627  90.6233505   1.7378712  49.3768874  86.6372234
   1.4028544  49.3369644  87.5329884   1.2382658  48.7113590  86.1642644
   4.6737904  46.7224908  76.9109294   4.0567074  45.9971736  76.8142347
   4.2054392  47.4834268  76.5676368   6.3292035  51.4323816  94.5715074
   6.2704581  50.7483036  93.9045657   6.7311554  52.1742806  94.1195700
   6.3309442  49.3963400  92.8029054   5.4436221  49.0589322  92.9255453
   6.9007994  48.6646432  93.0397819   2.9597026  39.1031252  85.9227324
   3.4565725  38.3501214  85.6028394   2.1884007  39.1395569  85.3570533
  10.8126783  44.8071618  87.5645616  10.8016659  45.6896333  87.1939549
   9.9444162  44.4543168  87.3700153   2.3209279  53.9551687  91.9248456
   3.0337252  54.5899151  91.8524357   1.8299308  54.0515553  91.1088458
   4.0426806  47.8602939  83.4965747   3.1083085  47.9804402  83.3270452
   4.2203475  46.9575406  83.2325757   7.4299358  43.7020259  84.0315782
   7.8959810  44.5348250  83.9576084   7.8806858  43.2365240  84.7361040
   5.4975589  50.0464080  81.0301934   5.7735433  49.9320674  81.9395808
   4.6280087  49.6481565  80.9914107   5.4016020  36.0700846  88.0706683
   4.4879100  36.3005072  88.2388890   5.8309122  36.1539290  88.9220715
   5.1722479  44.2590738  90.5706577   4.5193929  44.5066645  89.9159030
   5.5502859  43.4454876  90.2369054   2.1329653  54.2950431  84.6734747
   2.3152047  53.4772087  85.1362500   2.9562639  54.5118123  84.2359637
   2.4671818  53.2218616  81.9349796   2.9959585  52.7111070  81.3219958
   2.7300038  52.9061146  82.7995329   1.2210052  45.0010549  97.0572614
   0.5450689  44.9004678  97.7274989   2.0437686  44.8449762  97.5208611
   4.8143709  51.1338734  97.1478884   5.3583613  51.7468692  96.6533839
   4.2330554  51.6918312  97.6645897   3.1001222  54.2559452  88.2793912
   2.9752361  53.4549191  87.7704858   3.7580313  54.7505645  87.7907882
   5.1636130  52.0568472  89.9073462   4.2166466  51.9373823  89.8351789
   5.5118904  51.1690970  89.9899724   2.1682564  51.8521188  86.1077814
   2.0207526  50.9237895  86.2885385   2.9936057  51.8741279  85.6234890
   5.7716686  52.6749747  87.1942687   6.6963233  52.4692608  87.0567138
   5.6031989  52.4266148  88.1032029   2.1644078  39.7059026  81.1009932
   2.3807692  40.5883663  80.7998760   1.6838145  39.3145239  80.3715574
   5.5612002  53.1935414  82.5504779   5.7348879  52.6281837  81.7978631
   6.0540893  53.9936309  82.3684269   1.0367769  36.2216577  86.1315856
   1.0589465  36.2855911  85.1767835   1.4535828  35.3821086  86.3256362
  11.4151393  45.9571837  84.1695078  11.8582539  45.2079162  83.7714202
  10.5377903  45.9481973  83.7868810   6.5487174  52.5102178  79.6501677
   7.2438079  53.1308871  79.8688992   6.8910324  51.6597530  79.9254055
   8.4478597  49.9601884  81.1789008   8.9729921  50.2989157  80.4538328
   8.3600950  49.0248899  80.9952142   8.1372503  50.5934788  96.4840206
   7.3468047  50.5758927  95.9444705   7.9005858  51.1323081  97.2389242
   8.2570378  47.4427254  93.7972934   8.3068383  47.2777261  94.7388457
   8.1484302  46.5754513  93.4070815   5.5474141  43.4258182  95.1132241
   6.4484004  43.2864647  94.8216239   5.6222115  43.5912637  96.0530418
   9.7588575  49.8624196  94.0414956   9.4673384  50.2254176  94.8778417
   9.1460707  49.1491204  93.8628288  10.9584258  47.4277075  86.5617526
  11.7931149  47.8666879  86.7255086  11.0943386  46.9515729  85.7425772
   8.0075764  44.9856810  92.5095014   8.4829885  45.1784456  91.7013865
   7.0841329  45.0415996  92.2638397   2.5855980  37.0204654  91.4750848
   3.1037924  37.7565681  91.1497336   2.2311113  37.3268647  92.3097607
   2.8368574  33.4404936  86.9951744   3.1170328  32.7728125  87.6212171
   3.6219181  33.6334032  86.4826408   6.7077433  41.8622570  90.7423319
   7.6594855  41.9620668  90.7635543   6.5380883  41.0700839  91.2521404
   4.7291812  38.9478153  90.9282720   4.1341744  39.2283166  90.2329209
   4.4441509  39.4372054  91.6999461   3.8599303  52.9001080  79.6885353
   4.7929976  52.8346642  79.8918228   3.7722515  53.7357347  79.2299886
   6.4887319  52.2166951  76.6489300   6.4100951  51.8826814  77.5425058
   7.3096986  52.7088719  76.6480773   9.1865510  45.0828690  89.8565619
   9.1541830  44.1444691  90.0425303   9.7966134  45.1612727  89.1231444
   1.0248841  43.9524743  75.8992823   1.9707946  43.8230951  75.9681241
   0.6463086  43.2139405  76.3762251   9.3359999  41.8739733  89.9023902
   8.8199047  41.0898190  89.7153831  10.2199947  41.5458450  90.0670422
   6.9970726  35.6180749  85.8619715   6.7995547  35.3095837  86.7463047
   7.6070431  36.3442388  85.9917645  15.0042060  46.1444697  88.9971656
  15.7345449  45.8829985  89.5579359  14.3949006  45.4073419  89.0373724
  13.0857357  44.2852559  89.5946107  12.3590521  44.1508524  88.9862599
  12.6704644  44.5929388  90.4002825   0.9087534  48.0042489  97.3593480
   1.8290543  48.1821088  97.5533527   0.8737117  47.0598534  97.2073179
   2.7544372  35.4989656  83.6116246   3.3075411  35.9185109  84.2706269
   2.9914459  34.5725404  83.6539202   6.1323179  37.6090181  83.1194910
   5.5521849  38.2674985  82.7372963   5.8659112  36.7867526  82.7082328
   4.5826746  37.0095239  85.3216231   5.0826524  37.1211773  84.5130550
   5.2262354  36.7056292  85.9617039   4.9148057  39.7690271  82.1751259
   4.0273913  40.0539922  81.9571454   5.3302047  39.6084035  81.3278536
   8.2662594  39.7936792  85.8905598   9.0422984  40.2833245  86.1630215
   7.5410728  40.2194847  86.3477467  10.7035152  40.5064412  86.9479539
  11.2979643  40.2660148  86.2372847  10.7761736  39.7871542  87.5753075
   4.0591271  49.5334946  76.2699279   4.7627121  49.7384949  76.8856934
   3.3353920  50.1011708  76.5348362   4.8889081  45.2844807  82.3901549
   4.8324283  45.7413359  81.5509181   5.4417424  44.5235492  82.2124392
   8.6993887  41.0734539  83.2151668   8.4430821  40.6731175  84.0459876
   8.0746755  41.7878333  83.0901808  13.0106225  43.8130612  85.7222960
  12.4505783  43.8823802  86.4954522  12.4049728  43.6371597  85.0022456
   5.9677968  49.9717475  78.3197739   6.8023572  49.5398674  78.1375214
   5.8062311  49.7999489  79.2474633   5.6223861  46.4749589  79.6854078
   5.5672664  46.3093860  78.7442522   4.9969916  47.1825621  79.8416268
   2.9369768  48.7798500  99.0107641   3.8060927  48.9539153  98.6494276
   2.4576519  49.5992917  98.8883370   2.7472105  32.5700474  83.5185333
   1.9804501  32.0158961  83.6642016   3.1582810  32.6422343  84.3799485
  14.5962243  60.4887126  88.4152916  15.2340653  60.3693874  87.7116256
  14.4783086  61.4367970  88.4740868  11.4051950  60.4414554  88.3514440
  11.0670461  60.3255619  87.4634975  12.2741718  60.0405720  88.3315446
   7.2638765  62.2950031  84.3411331   6.7003631  62.2039968  83.5727619
   7.1491160  61.4749935  84.8213824  11.8871733  61.5949406  94.3100646
  11.8760373  61.2002204  93.4381149  12.0492372  60.8615479  94.9034417
   4.8103197  63.7901222  87.1795552   5.6024489  63.4492047  86.7641851
   5.0499848  63.8996198  88.0997705  12.8438324  65.9620999  79.6525796
  12.1926304  66.5475079  79.2659810  13.6382687  66.4927193  79.7120834
   6.7693951  63.0510136  80.0512930   7.5424827  62.5039123  79.9125806
   7.1219350  63.9154385  80.2627392   8.6078994  64.3786518  93.2579830
   8.3168860  65.2832149  93.1426496   9.2435978  64.4203046  93.9723899
   9.5335201  61.7563367  89.8481189  10.1298773  61.5319389  89.1338152
   9.5910172  61.0148112  90.4506637   9.1060229  59.2102802  77.6831380
   9.3585750  58.6884323  76.9214843   8.1684788  59.0468947  77.7858064
  14.1503512  58.2138580  85.4906124  14.9366601  57.7958003  85.1396541
  14.4142216  59.1184672  85.6587772  14.3213589  63.6511431  80.1894780
  13.6859422  63.7246057  80.9015685  13.9910996  64.2405029  79.5113860
  19.5511939  58.1513813  86.3939102  20.2837111  57.5813030  86.6276932
  18.7951295  57.7635414  86.8345608   8.8256518  61.1130908  79.8855755
   8.7092776  60.4375811  80.5536840   8.9358778  60.6263282  79.0687908
  11.1688059  60.5741055  83.5902445  10.8046266  60.0471676  84.3015366
  12.0255175  60.1839524  83.4168930  17.0737359  51.8635388  90.8533711
  16.7420684  52.7330798  90.6294926  16.4782973  51.5471672  91.5327741
  10.8093546  55.6030955  78.5863793  10.9767948  56.4711191  78.9534264
  10.6190715  55.7658236  77.6625082  13.5668879  64.0647934  90.2529623
  13.2669602  64.9672972  90.1445431  13.2219938  63.7980117  91.1050776
   7.0181360  60.5161730  86.2866328   6.0931857  60.3837944  86.4944020
   7.2665774  61.2955950  86.7836270  16.9666023  56.5830474  87.9327061
  16.0582900  56.5145882  87.6385822  16.9153619  57.0602419  88.7608886
  10.7882767  58.0588612  79.5710460  10.6682392  58.5045663  80.4095940
  10.0935355  58.4073930  79.0123998   4.3790171  60.1595004  87.1210117
   4.5082553  60.4129483  88.0349529   3.6987623  60.7522712  86.8014772
   8.5489659  70.8292254  83.2200591   8.4713688  71.7800079  83.2989072
   7.9451302  70.4838126  83.8775517  11.0406889  58.0020119  95.8761958
  10.2640223  58.5614039  95.8664823  11.6797452  58.4876902  96.3976828
  18.8327669  54.7846912  89.7104935  18.1902049  55.0779445  89.0644729
  18.3282598  54.6699832  90.5158131  16.4867833  58.5310085  80.3990794
  17.3985689  58.7637472  80.2238491  15.9777480  59.1147129  79.8365873
   9.2953261  60.8105573  95.4379925  10.0367945  61.3490617  95.1614749
   8.5890246  61.4371861  95.5951477  14.7708600  62.9534713  94.0352087
  15.1791957  62.5117124  93.2906719  14.0485862  62.3787341  94.2886279
  11.1239671  57.8907320  91.4085643  11.9700866  58.3146733  91.5520292
  11.0638308  57.2340944  92.1024207  15.0937415  63.5135904  87.7904375
  14.4646278  63.6781618  87.0880443  14.7063077  63.9277513  88.5615339
  18.9726647  64.4490342  85.1448739  18.2877685  64.8289243  84.5945772
  19.0570496  65.0585668  85.8780687  14.2739116  55.5511688  93.0666817
  14.0300048  56.3053749  92.5301093  14.5499046  55.9297036  93.9014064
  16.2277579  62.0950301  91.7444083  16.4394474  62.7382061  91.0678464
  16.1807327  61.2612617  91.2766013  13.8303808  54.7068121  88.6480655
  12.9688287  55.0049375  88.9397392  13.8566242  54.9238520  87.7161687
  10.6465377  63.2510312  85.0554460  11.1103723  63.5298015  84.2659083
  10.3822175  62.3493756  84.8727551   7.5389458  62.7981793  87.9934224
   8.1090815  63.2269062  87.3551708   8.1297570  62.5164378  88.6918409
   9.5834263  59.3733464  81.8644026  10.2858306  59.8254508  82.3317952
   9.2514892  58.7317283  82.4923919   8.0314625  57.9645221  96.2395235
   7.4013285  58.6461502  96.4730632   7.9250712  57.8528302  95.2948373
   3.3259597  57.6317017  87.1661159   2.5358651  57.8874545  86.6901270
   3.8170844  58.4465355  87.2713200  17.3423407  64.9722256  89.9166440
  18.1640850  64.5702443  89.6349122  17.3385809  64.8690490  90.8682556
   5.2774342  57.9961596  84.1244636   4.4805506  58.1080290  84.6428132
   5.0499935  58.3348248  83.2585526  11.1080010  64.5206299  92.0727151
  11.1724443  64.9826707  92.9085322  10.3990934  63.8903664  92.2009460
   1.6097300  57.8847507  89.5976150   1.8605338  58.7694517  89.8633726
   2.1456848  57.7052109  88.8251242  25.4329400  61.3161005  86.2651411
  24.6793108  60.7468403  86.1095416  25.5676941  61.2823669  87.2122046
  10.8228028  66.1874407  81.9406131  10.6873702  67.0325943  82.3690979
  11.3637840  66.3893684  81.1772065   7.3095367  52.2665987  98.6020486
   6.9162313  51.7132185  99.2768130   8.1261508  52.5776565  98.9927004
   4.2757425  63.7049845  82.5134056   4.7881946  64.4993095  82.6639621
   4.9280138  63.0076135  82.4467657   6.0852310  66.8215601  84.5956809
   6.2618938  67.7433566  84.4077793   6.8809143  66.5074020  85.0251189
  10.2263328  53.6823866  96.1940743  10.9673042  54.2831019  96.1145205
  10.4581251  52.9401504  95.6358785   5.3704666  58.8680233  94.4718972
   5.2558181  57.9665490  94.7726071   4.5149184  59.1143930  94.1203789
  12.4496504  66.8097973  96.0706473  12.0060358  66.0234352  95.7527377
  13.1113718  66.9977124  95.4050364   7.2083625  68.3393775  90.5967151
   7.7591050  68.2110838  89.8244145   6.3695101  68.6388664  90.2462044
  14.5477742  67.0900773  94.0987874  14.5296217  67.9109654  93.6068143
  15.4697662  66.9654848  94.3238015  11.0050796  64.6044903  94.9411383
  11.5379133  63.8433191  94.7110691  10.4764877  64.3118555  95.6835537
  14.1720491  49.7104969  90.4705024  13.8284761  50.6006610  90.3944135
  14.5399454  49.5206626  89.6074609   2.2406342  62.0338499  83.2893626
   3.0781564  62.4435508  83.0727334   2.4184610  61.0937941  83.2593820
  14.1370774  59.7013580  78.9777459  13.6217397  60.4718184  79.2165847
  13.8648082  59.0278716  79.6010521  11.7217885  54.5463281  84.0362698
  10.8659481  54.1570131  83.8568337  12.1344837  54.6255241  83.1762483
  13.2517032  52.0809624  88.4354258  12.7481827  52.0439759  87.6222063
  13.5447638  52.9902367  88.4950914   9.4959918  52.1648354  87.4420439
  10.3612914  51.9691162  87.0826329   9.5637426  51.9358705  88.3689796
  19.1105048  62.4545934  80.9130633  18.3334491  62.1157094  80.4685795
  19.7896529  62.4598558  80.2385598  13.9257077  57.5740672  80.8037241
  13.6207213  57.8886821  81.6547384  14.8787519  57.6522092  80.8464574
  12.3703509  63.7330895  82.4530195  11.8424871  62.9983655  82.1403432
  11.8691012  64.5105572  82.2070163  17.3496355  61.9279916  87.5697241
  16.6920029  62.6179177  87.6577370  18.1536754  62.3176348  87.9131227
   7.1022237  54.3950562  84.8136806   7.6765988  54.1725743  84.0809999
   7.6893219  54.4639256  85.5665407  16.1601814  60.2824288  85.6201183
  16.6733696  60.9154280  86.1222892  16.8103038  59.6825484  85.2544543
   7.4291824  56.4255023  78.8332691   6.5929136  56.7629709  79.1541966
   7.2896593  56.2904002  77.8959828   9.4044904  51.2691810  83.5411876
   8.7509317  50.9540828  82.9168490   9.3625378  50.6467551  84.2671698
  10.5156109  61.5511105  75.4565168   9.6083171  61.3200359  75.6556317
  11.0127141  60.7548725  75.6439149  13.4224188  70.2608613  78.3761854
  12.7485887  70.5640309  78.9846812  13.8090010  71.0637693  78.0267311
  12.6382645  57.7573744  87.8659523  11.7205206  57.9788691  87.7081211
  13.0542788  57.8320054  87.0071230  13.4217692  59.1565160  82.9962203
  14.1689511  59.6686557  82.6869325  13.6909282  58.8349212  83.8566597
  11.6944343  61.6523700  79.9789158  10.7855562  61.3682733  80.0761627
  11.7239426  62.0722779  79.1192465  16.9263610  65.2630290  83.7480325
  16.4725937  64.4221200  83.8045516  16.2957577  65.8991688  84.0855105
  15.8696530  56.1922276  84.9780993  15.1319286  55.6799662  85.3091235
  16.1223303  55.7522657  84.1664270  15.3696549  67.1006787  84.6830143
  15.6619524  67.6611844  83.9642509  15.8795170  67.3935348  85.4383303
  15.9708157  48.9698528  85.5722762  16.2767034  48.1095891  85.2848677
  16.6960762  49.5616148  85.3721756   2.2632513  59.3729214  83.9604360
   2.0656913  58.7798575  83.2355426   1.7079177  59.0681425  84.6780299
  10.2429237  59.2652321  86.0798953  10.2977846  58.3126157  86.0041430
   9.4320439  59.4211760  86.5640251  11.3920430  63.1932444  77.3177236
  10.9539860  62.4768303  76.8582874  12.1330871  63.4208559  76.7562328
   8.1821597  57.8829381  83.8389332   7.3689462  58.1823551  84.2454524
   8.6780591  57.4885069  84.5563814  10.3330174  67.8787138  85.7723597
  10.2906353  68.1047984  84.8432129  11.2492873  67.6450512  85.9209398
  13.7795808  58.3471205  92.6704226  14.1345196  58.5742678  93.5298692
  14.4267939  58.6789582  92.0481481  19.5093545  61.4689641  83.3753555
  19.3711444  61.6591237  82.4474744  19.1529764  62.2309024  83.8321606
   7.6735671  55.4547736  89.4550567   8.3135051  55.3136495  88.7573530
   6.8413202  55.1682250  89.0789169  19.5362925  63.5366168  88.3864826
  19.9699431  63.4441457  89.2347880  20.2494505  63.5123669  87.7484842
   8.4495975  64.7550167  85.5685559   9.2436574  64.2600487  85.3668134
   7.7387668  64.2268030  85.2053265  13.2690820  67.1368262  89.9197927
  13.3227842  67.7059198  90.6875643  12.4005601  67.3070147  89.5551964
   4.7578739  58.8993248  81.6445312   3.8276327  58.8377704  81.8615274
   4.8536211  58.3769201  80.8481953   4.6764288  55.4248061  84.2323554
   4.9371105  56.3393394  84.1232714   5.4981460  54.9572504  84.3820166
   6.1489213  56.8385818  91.4022378   6.8212266  56.6303181  90.7535027
   5.3219000  56.6407904  90.9627611  20.3978474  63.5789869  90.9197712
  20.5914364  64.4835679  91.1656987  20.2979093  63.1197288  91.7536297
  12.0514785  53.4647759  93.4188039  11.4042700  54.1637709  93.3252515
  12.8215800  53.8983903  93.7864287  15.4593583  63.7296611  96.4938592
  15.3079089  63.5007163  95.5768676  15.4498262  64.6867213  96.5069937
  12.2278919  61.3028524  91.4784859  13.1570979  61.4539684  91.3053826
  11.8069949  61.3912545  90.6233505  11.0267251  65.3279189  89.2483396
  10.8878337  64.9597973  90.1209335  10.2381847  65.8426828  89.0767354
  11.6215403  70.4288285  80.5908933  11.7967159  69.9576328  81.4054556
  10.9348191  71.0554051  80.8190194  12.5772466  64.7060791  86.6372234
  12.2422299  64.6661561  87.5329884  12.0776412  64.0405507  86.1642644
   6.5516710  60.1128421  92.1624815   6.4136508  59.3808660  92.7636354
   7.4621634  60.0237321  91.8809003  15.5131658  62.0516826  76.9109294
  14.8960829  61.3263654  76.8142347  15.0448146  62.8126186  76.5676368
   9.1799011  59.8248381  91.6508495   9.8898630  59.1841573  91.6095113
   9.1368319  60.0761276  92.5734676  17.1685790  66.7615734  94.5715074
  17.1098336  66.0774954  93.9045657  17.5705308  67.5034724  94.1195700
   7.8927945  56.8113599  93.4704134   7.3565302  56.3604337  94.1225731
   7.3044653  56.9459507  92.7274599   6.1876488  73.5777648  87.3648793
   6.4273087  74.2096172  88.0427812   5.3445685  73.2265688  87.6514152
   7.3030204  56.2702250  76.0330598   6.4259670  56.1491051  75.6692845
   7.7787957  55.4788328  75.7809487  17.1703197  64.7255318  92.8029054
  16.2829976  64.3881240  92.9255453  17.7401748  63.9938349  93.0397819
   3.6267066  55.9469606  90.5557129   3.5425255  55.3395276  89.8207539
   2.8049773  56.4378625  90.5566625  10.7004350  69.3856770  89.7690297
  10.6274522  70.1911742  90.2809602  10.2581743  69.5848736  88.9438318
  10.4894130  68.6228540  83.2793119   9.7061652  69.1650221  83.3731343
  11.1886875  69.1402520  83.6787360  13.7990780  54.4323170  85.9227324
  14.2959480  53.6793132  85.6028394  13.0277762  54.4687486  85.3570533
  21.6520537  60.1363535  87.5645616  21.6410414  61.0188251  87.1939549
  20.7837917  59.7835086  87.3700153  13.1603034  69.2843604  91.9248456
  13.8731006  69.9191069  91.8524357  12.6693062  69.3807470  91.1088458
  14.8820561  63.1894857  83.4965747  13.9476839  63.3096319  83.3270452
  15.0597229  62.2867324  83.2325757  10.3825749  56.5740553  85.6499009
  10.0123536  56.0211593  86.3379914  10.8784841  55.9698686  85.0974009
  18.2693112  59.0312176  84.0315782  18.7353564  59.8640168  83.9576084
  18.7200613  58.5657158  84.7361040   8.2114947  67.0338048  92.7454027
   8.9124407  67.6674531  92.8983421   7.7410062  67.3752779  91.9849666
  16.3369343  65.3755998  81.0301934  16.6129187  65.2612592  81.9395808
  15.4673842  64.9773482  80.9914107  16.2409775  51.3992763  88.0706683
  15.3272855  51.6296990  88.2388890  16.6702876  51.4831207  88.9220715
  16.0116233  59.5882655  90.5706577  15.3587684  59.8358563  89.9159030
  16.3896613  58.7746793  90.2369054  12.9723407  69.6242348  84.6734747
  13.1545802  68.8064004  85.1362500  13.7956393  69.8410041  84.2359637
  13.3065573  68.5510534  81.9349796  13.8353339  68.0402988  81.3219958
  13.5693792  68.2353064  82.7995329  12.0603806  60.3302466  97.0572614
  11.3844443  60.2296596  97.7274989  12.8831440  60.1741680  97.5208611
   3.8082665  66.5674403  89.6785129   4.3936102  65.8218091  89.8113033
   3.6107504  66.8778360  90.5621793   6.6621321  69.6025650  84.6947572
   5.9931696  70.0871778  84.2111612   6.5234190  69.8494871  85.6090950
  10.8026589  71.6369394  91.2930230  11.3544897  71.8001015  92.0579315
  11.1432783  72.2273832  90.6210255   5.7791082  53.9844544  91.8952115
   5.8432409  54.8459374  91.4829512   5.7158203  53.3718545  91.1624473
   5.2543355  56.0567676  95.5425149   5.8815394  55.6744753  96.1562673
   4.3971274  55.8381878  95.9080841  15.6537464  66.4630651  97.1478884
  16.1977368  67.0760610  96.6533839  15.0724308  67.0210230  97.6645897
   2.0308898  57.8644105  81.4743504   2.3262339  56.9554784  81.4210558
   1.1296934  57.8431845  81.1524506  13.9394977  69.5851369  88.2793912
  13.8146116  68.7841109  87.7704858  14.5974068  70.0797563  87.7907882
   5.5603145  55.9400102  87.4571052   4.8389731  56.5536069  87.3178526
   6.3496401  56.4757867  87.3787698  16.0029885  67.3860389  89.9073462
  15.0560220  67.2665741  89.8351789  16.3512658  66.4982887  89.9899724
   8.3629458  53.2754528  93.7311704   8.8863860  53.5216825  94.4938013
   8.1441792  54.1074563  93.3114841   3.7596739  55.5458203  81.5982829
   3.4309446  54.6655582  81.4157935   4.1136110  55.4905872  82.4859218
  13.0076318  67.1813106  86.1077814  12.8601281  66.2529813  86.2885385
  13.8329812  67.2033196  85.6234890   6.8738563  55.8331173  81.9658307
   7.2134635  56.3617094  81.2436915   7.3210683  56.1711579  82.7416873
  16.6110440  68.0041664  87.1942687  17.5356988  67.7984526  87.0567138
  16.4425743  67.7558065  88.1032029   9.5682003  54.2168223  91.4161375
   9.2278824  53.4176036  91.8182055   8.8621010  54.5169934  90.8438208
  10.2198475  51.3017536  89.8688698  11.0424544  50.8278014  89.7467588
  10.4636539  52.0808020  90.3687384   8.8606710  54.3305794  80.1651599
   9.5815072  54.7087047  79.6615316   8.2372014  55.0494671  80.2686577
  13.0037833  55.0350943  81.1009932  13.2201447  55.9175581  80.7998760
  12.5231900  54.6437157  80.3715574   7.7437054  57.9936656  87.6780676
   7.5981635  58.3076960  88.5704958   7.2662258  58.6121557  87.1251575
   9.6033437  54.9839204  87.7261566   9.5895006  54.0880298  87.3893864
  10.3205865  54.9909868  88.3599852  11.4559568  55.4176545  89.7714693
  11.1977345  56.3393615  89.7699024  10.9244608  55.0206979  90.4615157
  16.4005756  68.5227332  82.5504779  16.5742634  67.9573754  81.7978631
  16.8934648  69.3228227  82.3684269   2.2182716  60.5342001  90.6168338
   1.6736184  61.3101809  90.7488612   3.0962066  60.8812805  90.4587459
   9.0070333  53.8653585  82.9949136   9.1286244  52.9370231  83.1940024
   8.7172375  53.8792271  82.0827451  11.8761523  51.5508495  86.1315856
  11.8983220  51.6147828  85.1767835  12.2929582  50.7113004  86.3256362
  22.2545147  61.2863755  84.1695078  22.6976293  60.5371080  83.7714202
  21.3771658  61.2773891  83.7868810  17.3880929  67.8394096  79.6501677
  18.0831833  68.4600789  79.8688992  17.7304079  66.9889447  79.9254055
   3.0048738  59.6611897  93.5098494   2.2630474  59.8094532  94.0963125
   2.6841482  59.9220163  92.6465244  19.2872352  65.2893802  81.1789008
  19.8123676  65.6281074  80.4538328  19.1994704  64.3540817  80.9952142
  10.9492401  69.2027875  93.3078884  11.2579527  68.9577022  94.1801584
  11.7467883  69.4074514  92.8197755  10.9713013  71.3565785  85.5384261
  10.5318003  70.8642164  86.2317118  11.7221130  70.8138753  85.2976336
   3.4505352  67.5477326  85.5408889   4.2763372  67.2481098  85.1607533
   3.0999404  66.7784948  85.9898678   8.4186885  66.9003794  87.6106563
   7.7966894  66.2374499  87.3108790   9.0891752  66.9264926  86.9280210
   1.6513957  65.4663652  86.4997823   0.8145865  65.0385827  86.3181824
   1.6237602  65.6596096  87.4368614   8.4911412  55.3785582  97.2039069
   8.5399568  56.2547705  96.8216838   9.0333926  54.8362975  96.6310712
  18.9766258  65.9226705  96.4840206  18.1861802  65.9050844  95.9444705
  18.7399613  66.4614999  97.2389242  19.0964133  62.7719172  93.7972934
  19.1462138  62.6069179  94.7388457  18.9878056  61.9046431  93.4070815
   7.9800392  65.4507717  81.0865023   8.1288512  66.1343182  80.4331696
   8.7866835  65.4312807  81.6014479  16.3867895  58.7550100  95.1132241
  17.2877758  58.6156565  94.8216239  16.4615870  58.9204555  96.0530418
  10.7210701  56.1316954  93.9585427   9.8514010  56.4250521  93.6868016
  10.9570181  56.7157399  94.6792691  20.5982330  65.1916113  94.0414956
  20.3067138  65.5546094  94.8778417  19.9854461  64.4783122  93.8628288
  21.7978012  62.7568993  86.5617526  22.6324904  63.1958797  86.7255086
  21.9337141  62.2807646  85.7425772  18.8469518  60.3148728  92.5095014
  19.3223640  60.5076374  91.7013865  17.9235083  60.3707914  92.2638397
   5.7353025  61.4772895  82.0926092   5.4899067  60.5735225  82.2906302
   5.9048939  61.4790045  81.1505570  13.4249735  52.3496571  91.4750848
  13.9431678  53.0857598  91.1497336  13.0704867  52.6560565  92.3097607
   5.0048672  57.2101253  79.5912254   4.3117917  57.2845608  78.9352289
   4.7600424  56.4461596  80.1133770  13.6762329  48.7696854  86.9951744
  13.9564082  48.1020043  87.6212171  14.4612936  48.9625950  86.4826408
  11.4795797  67.9455848  78.5576771  10.9069764  68.5646035  78.1047242
  12.0528591  68.4955210  79.0916693  17.5471187  57.1914488  90.7423319
  18.4988610  57.2912586  90.7635543  17.3774637  56.3992756  91.2521404
  15.5685567  54.2770071  90.9282720  14.9735499  54.5575084  90.2329209
  15.2835263  54.7663972  91.6999461  14.6993057  68.2292998  79.6885353
  15.6323730  68.1638560  79.8918228  14.6116270  69.0649265  79.2299886
  17.3281074  67.5458868  76.6489300  17.2494705  67.2118732  77.5425058
  18.1490740  68.0380636  76.6480773  20.0259265  60.4120608  89.8565619
  19.9935585  59.4736608  90.0425303  20.6359888  60.4904644  89.1231444
  11.8642596  59.2816661  75.8992823  12.8101700  59.1522869  75.9681241
  11.4856841  58.5431323  76.3762251  20.1753753  57.2031651  89.9023902
  19.6592802  56.4190108  89.7153831  21.0593702  56.8750368  90.0670422
  17.8364480  50.9472667  85.8619715  17.6389301  50.6387755  86.7463047
  18.4464186  51.6734306  85.9917645  25.8435815  61.4736614  88.9971656
  26.5739203  61.2121903  89.5579359  25.2342760  60.7365336  89.0373724
  23.9251112  59.6144477  89.5946107  23.1984275  59.4800442  88.9862599
  23.5098399  59.9221306  90.4002825  11.7481288  63.3334407  97.3593480
  12.6684298  63.5113006  97.5533527  11.7130871  62.3890452  97.2073179
  10.0485513  57.2066637  75.8347708   9.1416968  56.9099750  75.9110422
  10.3261494  56.9096455  74.9681995   0.9663453  58.5273000  86.2846755
   0.6466238  57.6738309  85.9921129   0.4196881  58.7421579  87.0404722
   4.7443361  61.2435441  90.0016261   4.9629371  62.1752549  90.0204295
   5.1569135  60.8843416  90.7871065  11.6647579  51.7503527  81.9891950
  10.8548307  51.4050612  82.3647196  12.3531996  51.4411070  82.5779561
  13.5938127  50.8281574  83.6116246  14.1469165  51.2477027  84.2706269
  13.8308213  49.9017322  83.6539202   9.6171226  56.8168647  99.3919010
   9.5167953  57.7663004  99.3231101   9.3992768  56.4886886  98.5195080
   8.8184297  54.0653572  75.9759687   9.6803461  54.3908471  76.2355505
   9.0034642  53.2785068  75.4632753  16.9716934  52.9382099  83.1194910
  16.3915603  53.5966903  82.7372963  16.7052867  52.1159443  82.7082328
  15.4220500  52.3387156  85.3216231  15.9220279  52.4503691  84.5130550
  16.0656108  52.0348209  85.9617039   9.4802496  60.2465786  98.2084072
   8.9969578  61.0466146  98.4147961   9.5663435  60.2573731  97.2551516
   2.7488456  62.0794166  86.1305891   2.7259144  62.1781853  85.1787774
   3.0589092  62.9259316  86.4523057   5.4075834  64.1370321  90.2452506
   6.3619087  64.1054263  90.1782437   5.2088357  63.6760944  91.0602731
   5.9975216  62.7071437  92.8123303   6.8168105  63.2015515  92.8358141
   6.2712023  61.7903405  92.7840871  15.7541812  55.0982189  82.1751259
  14.8667667  55.3831840  81.9571454  16.1695801  54.9375952  81.3278536
  19.1056348  55.1228710  85.8905598  19.8816738  55.6125162  86.1630215
  18.3804482  55.5486764  86.3477467  21.5428907  55.8356329  86.9479539
  22.1373398  55.5952065  86.2372847  21.6155490  55.1163460  87.5753075
   3.7626062  69.6789940  87.2622703   3.6280530  68.9190341  86.6960701
   3.3458125  70.4030840  86.7951492  14.8985025  64.8626864  76.2699279
  15.6020876  65.0676866  76.8856934  14.1747674  65.4303626  76.5348362
  15.7282836  60.6136725  82.3901549  15.6718037  61.0705276  81.5509181
  16.2811178  59.8527410  82.2124392  19.5387642  56.4026457  83.2151668
  19.2824576  56.0023093  84.0459876  18.9140510  57.1170251  83.0901808
  23.8499979  59.1422530  85.7222960  23.2899537  59.2115719  86.4954522
  23.2443483  58.9663515  85.0022456   6.9195188  70.5759257  87.4741146
   6.8027572  71.5204690  87.3719836   6.0987635  70.2732819  87.8626945
  16.8071723  65.3009393  78.3197739  17.6417327  64.8690591  78.1375214
  16.6456066  65.1291407  79.2474633  16.4617615  61.8041506  79.6854078
  16.4066419  61.6385778  78.7442522  15.8363670  62.5117539  79.8416268
   1.2510130  57.0409571  93.5115500   1.8968994  56.5308525  94.0002725
   1.0427281  57.7778252  94.0858926  13.7763522  64.1090418  99.0107641
  14.6454682  64.2831070  98.6494276  13.2970274  64.9284835  98.8883370
   9.7713740  51.3049615  79.2639396   9.7592410  52.2491455  79.4207667
  10.6637162  51.1219761  78.9698858   7.9449702  71.2287519  90.6897075
   8.8476949  71.2611129  91.0063569   7.7187073  70.2987970  90.7043410
   9.7003304  69.9818506  87.3507153   8.7498935  69.9820367  87.2371525
  10.0035791  69.2351240  86.8343188  13.5865860  47.8992392  83.5185333
  12.8198256  47.3450879  83.6642016  13.9976565  47.9714261  84.3799485
   5.5907621  54.1877188  97.6090515   6.4539083  53.8313993  97.8193839
   5.0173032  53.8491083  98.2965919  25.4355998  75.8179044  88.4152916
  26.0734408  75.6985791  87.7116256  25.3176841  76.7659888  88.4740868
  22.2445704  75.7706472  88.3514440  21.9064216  75.6547537  87.4634975
  23.1135472  75.3697637  88.3315446  18.1032520  77.6241949  84.3411331
  17.5397385  77.5331885  83.5727619  17.9884915  76.8041853  84.8213824
  22.7265487  76.9241324  94.3100646  22.7154128  76.5294122  93.4381149
  22.8886127  76.1907396  94.9034417  15.6496952  79.1193140  87.1795552
  16.4418244  78.7783965  86.7641851  15.8893602  79.2288115  88.0997705
  23.6832079  81.2912916  79.6525796  23.0320058  81.8766997  79.2659810
  24.4776441  81.8219111  79.7120834  17.6087706  78.3802053  80.0512930
  18.3818582  77.8331040  79.9125806  17.9613105  79.2446303  80.2627392
  19.4472748  79.7078436  93.2579830  19.1562614  80.6124067  93.1426496
  20.0829733  79.7494963  93.9723899  20.3728955  77.0855284  89.8481189
  20.9692527  76.8611307  89.1338152  20.4303927  76.3440030  90.4506637
  19.9453984  74.5394720  77.6831380  20.1979504  74.0176241  76.9214843
  19.0078543  74.3760865  77.7858064  24.9897266  73.5430498  85.4906124
  25.7760356  73.1249921  85.1396541  25.2535971  74.4476590  85.6587772
  25.1607344  78.9803348  80.1894780  24.5253177  79.0537975  80.9015685
  24.8304750  79.5696947  79.5113860  30.3905694  73.4805731  86.3939102
  31.1230866  72.9104948  86.6276932  29.6345049  73.0927332  86.8345608
  19.6650272  76.4422825  79.8855755  19.5486530  75.7667729  80.5536840
  19.7752532  75.9555199  79.0687908  22.0081813  75.9032973  83.5902445
  21.6440021  75.3763594  84.3015366  22.8648929  75.5131442  83.4168930
  27.9131114  67.1927305  90.8533711  27.5814439  68.0622716  90.6294926
  27.3176727  66.8763589  91.5327741  21.6487300  70.9322872  78.5863793
  21.8161703  71.8003109  78.9534264  21.4584469  71.0950154  77.6625082
  24.4062633  79.3939851  90.2529623  24.1063357  80.2964890  90.1445431
  24.0613693  79.1272034  91.1050776  17.8575115  75.8453648  86.2866328
  16.9325611  75.7129862  86.4944020  18.1059528  76.6247867  86.7836270
  27.8059777  71.9122391  87.9327061  26.8976655  71.8437800  87.6385822
  27.7547373  72.3894336  88.7608886  21.6276521  73.3880530  79.5710460
  21.5076146  73.8337581  80.4095940  20.9329110  73.7365847  79.0123998
  15.2183926  75.4886922  87.1210117  15.3476307  75.7421401  88.0349529
  14.5381377  76.0814630  86.8014772  19.3883413  86.1584172  83.2200591
  19.3107443  87.1091997  83.2989072  18.7845057  85.8130044  83.8775517
  21.8800643  73.3312037  95.8761958  21.1033977  73.8905957  95.8664823
  22.5191206  73.8168820  96.3976828  29.6721424  70.1138830  89.7104935
  29.0295804  70.4071363  89.0644729  29.1676352  69.9991750  90.5158131
  27.3261587  73.8602003  80.3990794  28.2379443  74.0929390  80.2238491
  26.8171234  74.4439047  79.8365873  20.1347015  76.1397490  95.4379925
  20.8761700  76.6782534  95.1614749  19.4284001  76.7663779  95.5951477
  25.6102355  78.2826631  94.0352087  26.0185711  77.8409041  93.2906719
  24.8879616  77.7079258  94.2886279  21.9633425  73.2199238  91.4085643
  22.8094620  73.6438651  91.5520292  21.9032063  72.5632862  92.1024207
  25.9331170  78.8427821  87.7904375  25.3040032  79.0073536  87.0880443
  25.5456832  79.2569431  88.5615339  29.8120402  79.7782259  85.1448739
  29.1271440  80.1581161  84.5945772  29.8964251  80.3877586  85.8780687
  25.1132870  70.8803606  93.0666817  24.8693802  71.6345666  92.5301093
  25.3892801  71.2588954  93.9014064  27.0671333  77.4242218  91.7444083
  27.2788228  78.0673978  91.0678464  27.0201081  76.5904535  91.2766013
  24.6697562  70.0360039  88.6480655  23.8082041  70.3341292  88.9397392
  24.6959997  70.2530438  87.7161687  21.4859131  78.5802229  85.0554460
  21.9497477  78.8589932  84.2659083  21.2215930  77.6785674  84.8727551
  18.3783213  78.1273711  87.9934224  18.9484570  78.5560979  87.3551708
  18.9691324  77.8456296  88.6918409  20.4228018  74.7025382  81.8644026
  21.1252061  75.1546426  82.3317952  20.0908646  74.0609201  82.4923919
  18.8708379  73.2937138  96.2395235  18.2407040  73.9753419  96.4730632
  18.7644467  73.1820220  95.2948373  14.1653351  72.9608935  87.1661159
  13.3752405  73.2166463  86.6901270  14.6564599  73.7757272  87.2713200
  28.1817161  80.3014174  89.9166440  29.0034605  79.8994361  89.6349122
  28.1779564  80.1982408  90.8682556  16.1168097  73.3253514  84.1244636
  15.3199260  73.4372208  84.6428132  15.8893689  73.6640166  83.2585526
  21.9473764  79.8498217  92.0727151  22.0118197  80.3118624  92.9085322
  21.2384688  79.2195582  92.2009460  12.4491054  73.2139425  89.5976150
  12.6999093  74.0986435  89.8633726  12.9850603  73.0344027  88.8251242
  36.2723154  76.6452922  86.2651411  35.5186862  76.0760320  86.1095416
  36.4070695  76.6115587  87.2122046  21.6621782  81.5166324  81.9406131
  21.5267457  82.3617860  82.3690979  22.2031595  81.7185602  81.1772065
  18.1489122  67.5957904  98.6020486  17.7556067  67.0424103  99.2768130
  18.9655262  67.9068483  98.9927004  15.1151180  79.0341763  82.5134056
  15.6275700  79.8285013  82.6639621  15.7673892  78.3368053  82.4467657
  16.9246064  82.1507519  84.5956809  17.1012693  83.0725484  84.4077793
  17.7202898  81.8365938  85.0251189  21.0657083  69.0115783  96.1940743
  21.8066796  69.6122937  96.1145205  21.2975006  68.2693421  95.6358785
  16.2098421  74.1972151  94.4718972  16.0951936  73.2957408  94.7726071
  15.3542939  74.4435847  94.1203789  23.2890259  82.1389891  96.0706473
  22.8454113  81.3526270  95.7527377  23.9507472  82.3269042  95.4050364
  18.0477380  83.6685693  90.5967151  18.5984805  83.5402756  89.8244145
  17.2088856  83.9680582  90.2462044  25.3871497  82.4192691  94.0987874
  25.3689972  83.2401572  93.6068143  26.3091417  82.2946766  94.3238015
  21.8444551  79.9336820  94.9411383  22.3772888  79.1725109  94.7110691
  21.3158632  79.6410472  95.6835537  25.0114246  65.0396886  90.4705024
  24.6678515  65.9298528  90.3944135  25.3793208  64.8498544  89.6074609
  13.0800096  77.3630417  83.2893626  13.9175318  77.7727425  83.0727334
  13.2578364  76.4229859  83.2593820  24.9764528  75.0305497  78.9777459
  24.4611152  75.8010102  79.2165847  24.7041837  74.3570634  79.6010521
  22.5611639  69.8755198  84.0362698  21.7053236  69.4862049  83.8568337
  22.9738591  69.9547159  83.1762483  24.0910786  67.4101542  88.4354258
  23.5875582  67.3731677  87.6222063  24.3841393  68.3194284  88.4950914
  20.3353672  67.4940271  87.4420439  21.2006669  67.2983080  87.0826329
  20.4031181  67.2650623  88.3689796  29.9498803  77.7837852  80.9130633
  29.1728245  77.4449012  80.4685795  30.6290284  77.7890475  80.2385598
  24.7650832  72.9032590  80.8037241  24.4600967  73.2178739  81.6547384
  25.7181274  72.9814009  80.8464574  23.2097263  79.0622813  82.4530195
  22.6818625  78.3275572  82.1403432  22.7084766  79.8397489  82.2070163
  28.1890109  77.2571833  87.5697241  27.5313784  77.9471095  87.6577370
  28.9930509  77.6468265  87.9131227  17.9415991  69.7242479  84.8136806
  18.5159743  69.5017661  84.0809999  18.5286974  69.7931174  85.5665407
  26.9995568  75.6116206  85.6201183  27.5127450  76.2446198  86.1222892
  27.6496792  75.0117402  85.2544543  18.2685578  71.7546940  78.8332691
  17.4322890  72.0921627  79.1541966  18.1290348  71.6195920  77.8959828
  20.2438659  66.5983728  83.5411876  19.5903071  66.2832745  82.9168490
  20.2019133  65.9759469  84.2671698  21.3549864  76.8803023  75.4565168
  20.4476925  76.6492277  75.6556317  21.8520896  76.0840642  75.6439149
  24.2617943  85.5900530  78.3761854  23.5879641  85.8932227  78.9846812
  24.6483764  86.3929611  78.0267311  23.4776399  73.0865662  87.8659523
  22.5598961  73.3080609  87.7081211  23.8936543  73.1611972  87.0071230
  24.2611447  74.4857077  82.9962203  25.0083266  74.9978475  82.6869325
  24.5303036  74.1641130  83.8566597  22.5338097  76.9815618  79.9789158
  21.6249316  76.6974651  80.0761627  22.5633181  77.4014697  79.1192465
  27.7657364  80.5922208  83.7480325  27.3119692  79.7513117  83.8045516
  27.1351331  81.2283606  84.0855105  26.7090284  71.5214194  84.9780993
  25.9713041  71.0091580  85.3091235  26.9617058  71.0814575  84.1664270
  26.2090304  82.4298704  84.6830143  26.5013278  82.9903761  83.9642509
  26.7188924  82.7227265  85.4383303  26.8101911  64.2990446  85.5722762
  27.1160788  63.4387809  85.2848677  27.5354516  64.8908066  85.3721756
  13.1026267  74.7021132  83.9604360  12.9050667  74.1090493  83.2355426
  12.5472931  74.3973342  84.6780299  21.0822991  74.5944239  86.0798953
  21.1371601  73.6418075  86.0041430  20.2714193  74.7503678  86.5640251
  22.2314185  78.5224362  77.3177236  21.7933615  77.8060221  76.8582874
  22.9724626  78.7500477  76.7562328  19.0215351  73.2121298  83.8389332
  18.2083217  73.5115469  84.2454524  19.5174345  72.8176987  84.5563814
  21.1723929  83.2079055  85.7723597  21.1300108  83.4339902  84.8432129
  22.0886628  82.9742430  85.9209398  24.6189563  73.6763123  92.6704226
  24.9738950  73.9034596  93.5298692  25.2661694  74.0081500  92.0481481
  30.3487300  76.7981559  83.3753555  30.2105198  76.9883155  82.4474744
  29.9923518  77.5600942  83.8321606  18.5129426  70.7839654  89.4550567
  19.1528805  70.6428413  88.7573530  17.6806956  70.4974167  89.0789169
  30.3756679  78.8658086  88.3864826  30.8093186  78.7733375  89.2347880
  31.0888260  78.8415586  87.7484842  19.2889730  80.0842084  85.5685559
  20.0830328  79.5892404  85.3668134  18.5781422  79.5559947  85.2053265
  24.1084574  82.4660180  89.9197927  24.1621596  83.0351116  90.6875643
  23.2399356  82.6362065  89.5551964  15.5972493  74.2285166  81.6445312
  14.6670081  74.1669622  81.8615274  15.6929965  73.7061119  80.8481953
  15.5158042  70.7539979  84.2323554  15.7764860  71.6685312  84.1232714
  16.3375215  70.2864421  84.3820166  16.9882968  72.1677736  91.4022378
  17.6606021  71.9595098  90.7535027  16.1612754  71.9699822  90.9627611
  31.2372229  78.9081786  90.9197712  31.4308119  79.8127597  91.1656987
  31.1372847  78.4489205  91.7536297  22.8908540  68.7939677  93.4188039
  22.2436455  69.4929627  93.3252515  23.6609555  69.2275821  93.7864287
  26.2987338  79.0588529  96.4938592  26.1472844  78.8299081  95.5768676
  26.2892017  80.0159131  96.5069937  23.0672674  76.6320442  91.4784859
  23.9964734  76.7831601  91.3053826  22.6463704  76.7204463  90.6233505
  21.8661006  80.6571106  89.2483396  21.7272091  80.2889891  90.1209335
  21.0775602  81.1718746  89.0767354  22.4609158  85.7580203  80.5908933
  22.6360913  85.2868246  81.4054556  21.7741946  86.3845969  80.8190194
  23.4166221  80.0352709  86.6372234  23.0816053  79.9953479  87.5329884
  22.9170167  79.3697425  86.1642644  17.3910465  75.4420339  92.1624815
  17.2530263  74.7100578  92.7636354  18.3015388  75.3529239  91.8809003
  26.3525412  77.3808743  76.9109294  25.7354583  76.6555572  76.8142347
  25.8841901  78.1418104  76.5676368  20.0192765  75.1540298  91.6508495
  20.7292384  74.5133491  91.6095113  19.9762074  75.4053193  92.5734676
  28.0079544  82.0907652  94.5715074  27.9492090  81.4066872  93.9045657
  28.4099063  82.8326642  94.1195700  18.7321699  72.1405516  93.4704134
  18.1959056  71.6896255  94.1225731  18.1438408  72.2751425  92.7274599
  17.0270243  88.9069566  87.3648793  17.2666841  89.5388090  88.0427812
  16.1839439  88.5557606  87.6514152  18.1423958  71.5994168  76.0330598
  17.2653425  71.4782968  75.6692845  18.6181711  70.8080246  75.7809487
  28.0096951  80.0547236  92.8029054  27.1223730  79.7173157  92.9255453
  28.5795502  79.3230267  93.0397819   9.6626099  76.3871327  86.1272105
  10.3497138  76.0733057  85.5393121   9.5074227  77.2912692  85.8539357
  14.4660821  71.2761524  90.5557129  14.3819009  70.6687193  89.8207539
  13.6443527  71.7670542  90.5566625  21.5398105  84.7148688  89.7690297
  21.4668276  85.5203659  90.2809602  21.0975498  84.9140654  88.9438318
  21.3287884  83.9520458  83.2793119  20.5455406  84.4942138  83.3731343
  22.0280630  84.4694438  83.6787360  24.6384535  69.7615087  85.9227324
  25.1353234  69.0085050  85.6028394  23.8671516  69.7979404  85.3570533
  32.4914292  75.4655453  87.5645616  32.4804168  76.3480168  87.1939549
  31.6231671  75.1127004  87.3700153  23.9996788  84.6135522  91.9248456
  24.7124761  85.2482987  91.8524357  23.5086817  84.7099388  91.1088458
  25.7214315  78.5186775  83.4965747  24.7870594  78.6388237  83.3270452
  25.8990984  77.6159241  83.2325757  21.2219503  71.9032470  85.6499009
  20.8517291  71.3503511  86.3379914  21.7178596  71.2990604  85.0974009
  29.1086867  74.3604094  84.0315782  29.5747319  75.1932086  83.9576084
  29.5594367  73.8949076  84.7361040  19.0508702  82.3629965  92.7454027
  19.7518161  82.9966448  92.8983421  18.5803817  82.7044697  91.9849666
  27.1763098  80.7047915  81.0301934  27.4522942  80.5904510  81.9395808
  26.3067596  80.3065400  80.9914107  27.0803529  66.7284681  88.0706683
  26.1666609  66.9588908  88.2388890  27.5096631  66.8123125  88.9220715
  26.8509988  74.9174573  90.5706577  26.1981438  75.1650480  89.9159030
  27.2290368  74.1038711  90.2369054  23.8117162  84.9534266  84.6734747
  23.9939556  84.1355922  85.1362500  24.6350148  85.1701958  84.2359637
  24.1459327  83.8802451  81.9349796  24.6747094  83.3694906  81.3219958
  24.4087547  83.5644981  82.7995329  22.8997561  75.6594384  97.0572614
  22.2238198  75.5588513  97.7274989  23.7225195  75.5033598  97.5208611
  14.6476420  81.8966321  89.6785129  15.2329857  81.1510008  89.8113033
  14.4501258  82.2070277  90.5621793  17.5015075  84.9317568  84.6947572
  16.8325450  85.4163696  84.2111612  17.3627945  85.1786788  85.6090950
   9.2394075  74.4671921  88.3989572   9.2778174  73.9335511  89.1926691
   8.7334367  73.9407126  87.7800550  21.6420344  86.9661311  91.2930230
  22.1938652  87.1292933  92.0579315  21.9826537  87.5565749  90.6210255
  16.6184837  69.3136461  91.8952115  16.6826163  70.1751292  91.4829512
  16.5551957  68.7010463  91.1624473  16.0937109  71.3859594  95.5425149
  16.7209148  71.0036671  96.1562673  15.2365028  71.1673796  95.9080841
  26.4931218  81.7922569  97.1478884  27.0371122  82.4052527  96.6533839
  25.9118063  82.3502147  97.6645897  12.8702652  73.1936023  81.4743504
  13.1656093  72.2846701  81.4210558  11.9690688  73.1723762  81.1524506
  24.7788731  84.9143287  88.2793912  24.6539870  84.1133027  87.7704858
  25.4367822  85.4089480  87.7907882  16.3996899  71.2692019  87.4571052
  15.6783485  71.8827987  87.3178526  17.1890155  71.8049784  87.3787698
  26.8423639  82.7152307  89.9073462  25.8953975  82.5957658  89.8351789
  27.1906413  81.8274805  89.9899724  19.2023213  68.6046446  93.7311704
  19.7257615  68.8508742  94.4938013  18.9835546  69.4366481  93.3114841
  14.5990494  70.8750121  81.5982829  14.2703200  69.9947499  81.4157935
  14.9529865  70.8197789  82.4859218  23.8470073  82.5105023  86.1077814
  23.6995035  81.5821731  86.2885385  24.6723566  82.5325114  85.6234890
  17.7132317  71.1623090  81.9658307  18.0528389  71.6909012  81.2436915
  18.1604437  71.5003496  82.7416873  27.4504195  83.3333582  87.1942687
  28.3750742  83.1276443  87.0567138  27.2819498  83.0849983  88.1032029
  20.4075758  69.5460141  91.4161375  20.0672578  68.7467954  91.8182055
  19.7014764  69.8461852  90.8438208  21.0592230  66.6309453  89.8688698
  21.8818299  66.1569932  89.7467588  21.3030293  67.4099937  90.3687384
  19.7000464  69.6597712  80.1651599  20.4208827  70.0378965  79.6615316
  19.0765768  70.3786589  80.2686577  23.8431587  70.3642861  81.1009932
  24.0595201  71.2467499  80.7998760  23.3625654  69.9729074  80.3715574
  18.5830808  73.3228574  87.6780676  18.4375389  73.6368877  88.5704958
  18.1056012  73.9413474  87.1251575  20.4427191  70.3131122  87.7261566
  20.4288760  69.4172215  87.3893864  21.1599619  70.3201786  88.3599852
  22.2953322  70.7468462  89.7714693  22.0371100  71.6685533  89.7699024
  21.7638362  70.3498897  90.4615157  27.2399511  83.8519249  82.5504779
  27.4136388  83.2865672  81.7978631  27.7328402  84.6520144  82.3684269
  13.0576471  75.8633919  90.6168338  12.5129939  76.6393726  90.7488612
  13.9355820  76.2104723  90.4587459  19.8464087  69.1945502  82.9949136
  19.9679998  68.2662149  83.1940024  19.5566130  69.2084188  82.0827451
  22.7155278  66.8800413  86.1315856  22.7376974  66.9439746  85.1767835
  23.1323337  66.0404921  86.3256362  33.0938902  76.6155672  84.1695078
  33.5370048  75.8662998  83.7714202  32.2165412  76.6065809  83.7868810
  28.2274683  83.1686014  79.6501677  28.9225588  83.7892707  79.8688992
  28.5697833  82.3181365  79.9254055  13.8442492  74.9903815  93.5098494
  13.1024228  75.1386450  94.0963125  13.5235237  75.2512080  92.6465244
  30.1266106  80.6185719  81.1789008  30.6517430  80.9572992  80.4538328
  30.0388459  79.6832735  80.9952142  21.7886155  84.5319793  93.3078884
  22.0973282  84.2868940  94.1801584  22.5861637  84.7366431  92.8197755
  21.8106767  86.6857703  85.5384261  21.3711757  86.1934081  86.2317118
  22.5614884  86.1430670  85.2976336  14.2899106  82.8769244  85.5408889
  15.1157126  82.5773015  85.1607533  13.9393158  82.1076866  85.9898678
  19.2580639  82.2295712  87.6106563  18.6360649  81.5666417  87.3108790
  19.9285506  82.2556844  86.9280210  12.4907711  80.7955570  86.4997823
  11.6539619  80.3677744  86.3181824  12.4631357  80.9888013  87.4368614
  19.3305167  70.7077500  97.2039069  19.3793322  71.5839623  96.8216838
  19.8727681  70.1654893  96.6310712  29.8160012  81.2518623  96.4840206
  29.0255556  81.2342762  95.9444705  29.5793367  81.7906917  97.2389242
  29.9357887  78.1011089  93.7972934  29.9855892  77.9361097  94.7388457
  29.8271811  77.2338348  93.4070815  18.8194146  80.7799635  81.0865023
  18.9682267  81.4635099  80.4331696  19.6260590  80.7604725  81.6014479
  27.2261650  74.0842017  95.1132241  28.1271513  73.9448482  94.8216239
  27.3009624  74.2496472  96.0530418  21.5604455  71.4608872  93.9585427
  20.6907765  71.7542438  93.6868016  21.7963936  72.0449317  94.6792691
  31.4376084  80.5208031  94.0414956  31.1460893  80.8838011  94.8778417
  30.8248216  79.8075039  93.8628288  32.6371767  78.0860911  86.5617526
  33.4718658  78.5250715  86.7255086  32.7730895  77.6099564  85.7425772
  29.6863273  75.6440646  92.5095014  30.1617394  75.8368292  91.7013865
  28.7628838  75.6999831  92.2638397  16.5746779  76.8064813  82.0926092
  16.3292821  75.9027143  82.2906302  16.7442694  76.8081963  81.1505570
  24.2643489  67.6788489  91.4750848  24.7825433  68.4149516  91.1497336
  23.9098622  67.9852482  92.3097607  15.8442427  72.5393170  79.5912254
  15.1511672  72.6137525  78.9352289  15.5994179  71.7753514  80.1133770
  24.5156083  64.0988772  86.9951744  24.7957837  63.4311961  87.6212171
  25.3006690  64.2917867  86.4826408  22.3189552  83.2747766  78.5576771
  21.7463519  83.8937953  78.1047242  22.8922345  83.8247127  79.0916693
  28.3864942  72.5206406  90.7423319  29.3382364  72.6204503  90.7635543
  28.2168392  71.7284674  91.2521404  26.4079321  69.6061989  90.9282720
  25.8129253  69.8867002  90.2329209  26.1229018  70.0955890  91.6999461
  25.5386811  83.5584916  79.6885353  26.4717485  83.4930477  79.8918228
  25.4510024  84.3941183  79.2299886  28.1674828  82.8750786  76.6489300
  28.0888460  82.5410650  77.5425058  28.9884495  83.3672554  76.6480773
  30.8653019  75.7412525  89.8565619  30.8329339  74.8028526  90.0425303
  31.4753643  75.8196562  89.1231444  22.7036350  74.6108578  75.8992823
  23.6495455  74.4814786  75.9681241  22.3250595  73.8723240  76.3762251
  31.0147508  72.5323569  89.9023902  30.4986556  71.7482025  89.7153831
  31.8987456  72.2042285  90.0670422  28.6758235  66.2764584  85.8619715
  28.4783056  65.9679672  86.7463047  29.2857940  67.0026223  85.9917645
  36.6829569  76.8028532  88.9971656  37.4132958  76.5413820  89.5579359
  36.0736515  76.0657254  89.0373724  34.7644866  74.9436395  89.5946107
  34.0378030  74.8092360  88.9862599  34.3492153  75.2513223  90.4002825
  22.5875043  78.6626324  97.3593480  23.5078052  78.8404923  97.5533527
  22.5524626  77.7182370  97.2073179  20.8879267  72.5358555  75.8347708
  19.9810723  72.2391667  75.9110422  21.1655248  72.2388373  74.9681995
  11.8057208  73.8564918  86.2846755  11.4859992  73.0030226  85.9921129
  11.2590636  74.0713496  87.0404722  15.5837115  76.5727359  90.0016261
  15.8023125  77.5044467  90.0204295  15.9962889  76.2135333  90.7871065
  22.5041333  67.0795444  81.9891950  21.6942061  66.7342529  82.3647196
  23.1925750  66.7702988  82.5779561  24.4331881  66.1573491  83.6116246
  24.9862920  66.5768945  84.2706269  24.6701968  65.2309239  83.6539202
  20.4564981  72.1460565  99.3919010  20.3561707  73.0954922  99.3231101
  20.2386523  71.8178804  98.5195080  19.6578052  69.3945490  75.9759687
  20.5197216  69.7200388  76.2355505  19.8428396  68.6076986  75.4632753
  11.6745468  77.4767830  88.2539876  10.9808939  77.0621782  87.7409831
  12.4218459  77.5188366  87.6573295  27.8110688  68.2674016  83.1194910
  27.2309358  68.9258820  82.7372963  27.5446621  67.4451361  82.7082328
  26.2614255  67.6679074  85.3216231  26.7614033  67.7795609  84.5130550
  26.9049863  67.3640127  85.9617039  20.3196251  75.5757704  98.2084072
  19.8363332  76.3758064  98.4147961  20.4057190  75.5865649  97.2551516
  13.5882210  77.4086083  86.1305891  13.5652898  77.5073771  85.1787774
  13.8982847  78.2551234  86.4523057  16.2469588  79.4662238  90.2452506
  17.2012842  79.4346181  90.1782437  16.0482112  79.0052862  91.0602731
  16.8368970  78.0363354  92.8123303  17.6561859  78.5307433  92.8358141
  17.1105778  77.1195323  92.7840871  26.5935566  70.4274107  82.1751259
  25.7061421  70.7123757  81.9571454  27.0089556  70.2667870  81.3278536
  29.9450103  70.4520628  85.8905598  30.7210493  70.9417080  86.1630215
  29.2198237  70.8778682  86.3477467  32.3822661  71.1648247  86.9479539
  32.9767152  70.9243983  86.2372847  32.4549245  70.4455377  87.5753075
  14.6019817  85.0081858  87.2622703  14.4674285  84.2482259  86.6960701
  14.1851879  85.7322758  86.7951492  25.7378780  80.1918781  76.2699279
  26.4414630  80.3968784  76.8856934  25.0141429  80.7595543  76.5348362
  26.5676590  75.9428643  82.3901549  26.5111792  76.3997194  81.5509181
  27.1204933  75.1819327  82.2124392  30.3781396  71.7318375  83.2151668
  30.1218330  71.3315010  84.0459876  29.7534264  72.4462168  83.0901808
  34.6893734  74.4714448  85.7222960  34.1293292  74.5407637  86.4954522
  34.0837237  74.2955432  85.0022456  17.7588943  85.9051175  87.4741146
  17.6421327  86.8496607  87.3719836  16.9381389  85.6024736  87.8626945
  27.6465477  80.6301311  78.3197739  28.4811081  80.1982509  78.1375214
  27.4849820  80.4583324  79.2474633  27.3011370  77.1333424  79.6854078
  27.2460173  76.9677695  78.7442522  26.6757425  77.8409457  79.8416268
  12.0903885  72.3701488  93.5115500  12.7362748  71.8600442  94.0002725
  11.8821036  73.1070170  94.0858926  24.6157277  79.4382336  99.0107641
  25.4848436  79.6122988  98.6494276  24.1364028  80.2576753  98.8883370
  20.6107495  66.6341533  79.2639396  20.5986165  67.5783373  79.4207667
  21.5030917  66.4511678  78.9698858  18.7843457  86.5579437  90.6897075
  19.6870704  86.5903047  91.0063569  18.5580827  85.6279888  90.7043410
  20.5397059  85.3110423  87.3507153  19.5892690  85.3112285  87.2371525
  20.8429545  84.5643158  86.8343188  24.4259614  63.2284310  83.5185333
  23.6592010  62.6742796  83.6642016  24.8370319  63.3006178  84.3799485
  16.4301376  69.5169105  97.6090515  17.2932837  69.1605910  97.8193839
  15.8566786  69.1783000  98.2965919  36.2749752  91.1470962  88.4152916
  36.9128162  91.0277709  87.7116256  36.1570595  92.0951806  88.4740868
  33.0839459  91.0998390  88.3514440  32.7457970  90.9839455  87.4634975
  33.9529227  90.6989555  88.3315446  28.9426274  92.9533866  84.3411331
  28.3791140  92.8623803  83.5727619  28.8278669  92.1333771  84.8213824
  33.5659242  92.2533242  94.3100646  33.5547882  91.8586040  93.4381149
  33.7279881  91.5199314  94.9034417  26.4890706  94.4485058  87.1795552
  27.2811998  94.1075882  86.7641851  26.7287357  94.5580033  88.0997705
  34.5225833  96.6204834  79.6525796  33.8713813  97.2058914  79.2659810
  35.3170196  97.1511029  79.7120834  28.4481460  93.7093971  80.0512930
  29.2212336  93.1622958  79.9125806  28.8006859  94.5738220  80.2627392
  30.2866503  95.0370353  93.2579830  29.9956369  95.9415984  93.1426496
  30.9223487  95.0786881  93.9723899  31.2122710  92.4147202  89.8481189
  31.8086282  92.1903224  89.1338152  31.2697681  91.6731947  90.4506637
  30.7847738  89.8686637  77.6831380  31.0373259  89.3468158  76.9214843
  29.8472297  89.7052783  77.7858064  35.8291021  88.8722416  85.4906124
  36.6154110  88.4541839  85.1396541  36.0929725  89.7768508  85.6587772
  36.0001098  94.3095266  80.1894780  35.3646931  94.3829892  80.9015685
  35.6698505  94.8988865  79.5113860  41.2299448  88.8097649  86.3939102
  41.9624620  88.2396866  86.6276932  40.4738804  88.4219249  86.8345608
  30.5044027  91.7714743  79.8855755  30.3880285  91.0959647  80.5536840
  30.6146287  91.2847117  79.0687908  32.8475568  91.2324890  83.5902445
  32.4833775  90.7055511  84.3015366  33.7042684  90.8423359  83.4168930
  38.7524868  82.5219223  90.8533711  38.4208193  83.3914634  90.6294926
  38.1570482  82.2055507  91.5327741  32.4881055  86.2614790  78.5863793
  32.6555457  87.1295026  78.9534264  32.2978224  86.4242072  77.6625082
  35.2456388  94.7231769  90.2529623  34.9457111  95.6256808  90.1445431
  34.9007447  94.4563952  91.1050776  28.6968869  91.1745566  86.2866328
  27.7719366  91.0421780  86.4944020  28.9453283  91.9539785  86.7836270
  38.6453532  87.2414309  87.9327061  37.7370409  87.1729717  87.6385822
  38.5941128  87.7186254  88.7608886  32.4670276  88.7172447  79.5710460
  32.3469901  89.1629498  80.4095940  31.7722864  89.0657765  79.0123998
  26.0577680  90.8178839  87.1210117  26.1870062  91.0713318  88.0349529
  25.3775132  91.4106547  86.8014772  30.2277168 101.4876089  83.2200591
  30.1501197 102.4383914  83.2989072  29.6238811 101.1421962  83.8775517
  32.7194397  88.6603955  95.8761958  31.9427732  89.2197875  95.8664823
  33.3584961  89.1460738  96.3976828  40.5115178  85.4430747  89.7104935
  39.8689558  85.7363281  89.0644729  40.0070107  85.3283668  90.5158131
  38.1655342  89.1893921  80.3990794  39.0773198  89.4221307  80.2238491
  37.6564989  89.7730965  79.8365873  30.9740770  91.4689408  95.4379925
  31.7155454  92.0074452  95.1614749  30.2677755  92.0955697  95.5951477
  36.4496109  93.6118548  94.0352087  36.8579465  93.1700959  93.2906719
  35.7273371  93.0371176  94.2886279  32.8027179  88.5491155  91.4085643
  33.6488375  88.9730569  91.5520292  32.7425817  87.8924780  92.1024207
  36.7724924  94.1719739  87.7904375  36.1433787  94.3365453  87.0880443
  36.3850586  94.5861349  88.5615339  40.6514156  95.1074177  85.1448739
  39.9665194  95.4873078  84.5945772  40.7358005  95.7169504  85.8780687
  35.9526625  86.2095524  93.0666817  35.7087557  86.9637584  92.5301093
  36.2286555  86.5880871  93.9014064  37.9065088  92.7534136  91.7444083
  38.1181983  93.3965896  91.0678464  37.8594836  91.9196453  91.2766013
  35.5091317  85.3651957  88.6480655  34.6475796  85.6633210  88.9397392
  35.5353751  85.5822356  87.7161687  32.3252886  93.9094147  85.0554460
  32.7891232  94.1881850  84.2659083  32.0609684  93.0077592  84.8727551
  29.2176967  93.4565629  87.9934224  29.7878324  93.8852897  87.3551708
  29.8085079  93.1748213  88.6918409  31.2621772  90.0317300  81.8644026
  31.9645815  90.4838343  82.3317952  30.9302401  89.3901118  82.4923919
  29.7102134  88.6229056  96.2395235  29.0800794  89.3045337  96.4730632
  29.6038221  88.5112138  95.2948373  25.0047106  88.2900852  87.1661159
  24.2146160  88.5458381  86.6901270  25.4958353  89.1049190  87.2713200
  39.0210916  95.6306091  89.9166440  39.8428359  95.2286279  89.6349122
  39.0173318  95.5274326  90.8682556  26.9561851  88.6545431  84.1244636
  26.1593015  88.7664126  84.6428132  26.7287444  88.9932084  83.2585526
  32.7867519  95.1790135  92.0727151  32.8511952  95.6410542  92.9085322
  32.0778443  94.5487500  92.2009460  23.2884809  88.5431343  89.5976150
  23.5392847  89.4278353  89.8633726  23.8244357  88.3635944  88.8251242
  47.1116909  91.9744840  86.2651411  46.3580617  91.4052238  86.1095416
  47.2464450  91.9407504  87.2122046  32.5015537  96.8458242  81.9406131
  32.3661211  97.6909778  82.3690979  33.0425349  97.0477520  81.1772065
  28.9882876  82.9249822  98.6020486  28.5949822  82.3716021  99.2768130
  29.8049017  83.2360400  98.9927004  25.9544934  94.3633680  82.5134056
  26.4669455  95.1576930  82.6639621  26.6067647  93.6659971  82.4467657
  27.7639819  97.4799436  84.5956809  27.9406447  98.4017401  84.4077793
  28.5596652  97.1657856  85.0251189  31.9050837  84.3407701  96.1940743
  32.6460551  84.9414854  96.1145205  32.1368760  83.5985339  95.6358785
  27.0492175  89.5264068  94.4718972  26.9345690  88.6249326  94.7726071
  26.1936693  89.7727765  94.1203789  34.1284013  97.4681809  96.0706473
  33.6847867  96.6818187  95.7527377  34.7901227  97.6560959  95.4050364
  28.8871134  98.9977610  90.5967151  29.4378559  98.8694674  89.8244145
  28.0482610  99.2972499  90.2462044  36.2265251  97.7484609  94.0987874
  36.2083726  98.5693490  93.6068143  37.1485171  97.6238684  94.3238015
  32.6838305  95.2628738  94.9411383  33.2166642  94.5017026  94.7110691
  32.1552386  94.9702390  95.6835537  35.8508000  80.3688804  90.4705024
  35.5072270  81.2590446  90.3944135  36.2186963  80.1790462  89.6074609
  23.9193851  92.6922335  83.2893626  24.7569073  93.1019343  83.0727334
  24.0972119  91.7521777  83.2593820  35.8158283  90.3597415  78.9777459
  35.3004906  91.1302020  79.2165847  35.5435591  89.6862551  79.6010521
  33.4005394  85.2047116  84.0362698  32.5446990  84.8153966  83.8568337
  33.8132346  85.2839077  83.1762483  34.9304541  82.7393459  88.4354258
  34.4269336  82.7023594  87.6222063  35.2235147  83.6486202  88.4950914
  31.1747426  82.8232189  87.4420439  32.0400423  82.6274998  87.0826329
  31.2424935  82.5942541  88.3689796  40.7892557  93.1129770  80.9130633
  40.0122000  92.7740929  80.4685795  41.4684038  93.1182393  80.2385598
  35.6044586  88.2324507  80.8037241  35.2994722  88.5470656  81.6547384
  36.5575028  88.3105927  80.8464574  34.0491018  94.3914731  82.4530195
  33.5212380  93.6567490  82.1403432  33.5478521  95.1689407  82.2070163
  39.0283864  92.5863751  87.5697241  38.3707538  93.2763012  87.6577370
  39.8324263  92.9760183  87.9131227  28.7809746  85.0534397  84.8136806
  29.3553497  84.8309578  84.0809999  29.3680728  85.1223091  85.5665407
  37.8389323  90.9408124  85.6201183  38.3521205  91.5738116  86.1222892
  38.4890547  90.3409319  85.2544543  29.1079333  87.0838858  78.8332691
  28.2716645  87.4213544  79.1541966  28.9684102  86.9487838  77.8959828
  31.0832413  81.9275646  83.5411876  30.4296826  81.6124663  82.9168490
  31.0412887  81.3051386  84.2671698  32.1943618  92.2094941  75.4565168
  31.2870680  91.9784194  75.6556317  32.6914650  91.4132560  75.6439149
  35.1011697 100.9192448  78.3761854  34.4273396 101.2224145  78.9846812
  35.4877519 101.7221528  78.0267311  34.3170154  88.4157579  87.8659523
  33.3992715  88.6372526  87.7081211  34.7330297  88.4903890  87.0071230
  35.1005201  89.8148995  82.9962203  35.8477020  90.3270392  82.6869325
  35.3696791  89.4933048  83.8566597  33.3731852  92.3107536  79.9789158
  32.4643071  92.0266569  80.0761627  33.4026935  92.7306614  79.1192465
  38.6051119  95.9214125  83.7480325  38.1513446  95.0805035  83.8045516
  37.9745086  96.5575524  84.0855105  37.5484039  86.8506111  84.9780993
  36.8106795  86.3383497  85.3091235  37.8010812  86.4106493  84.1664270
  37.0484058  97.7590622  84.6830143  37.3407033  98.3195679  83.9642509
  37.5582679  98.0519183  85.4383303  37.6495666  79.6282363  85.5722762
  37.9554543  78.7679727  85.2848677  38.3748271  80.2199983  85.3721756
  23.9420022  90.0313050  83.9604360  23.7444422  89.4382411  83.2355426
  23.3866686  89.7265260  84.6780299  31.9216746  89.9236156  86.0798953
  31.9765355  88.9709993  86.0041430  31.1107948  90.0795595  86.5640251
  33.0707939  93.8516279  77.3177236  32.6327369  93.1352138  76.8582874
  33.8118380  94.0792394  76.7562328  29.8609106  88.5413216  83.8389332
  29.0476971  88.8407387  84.2454524  30.3568100  88.1468905  84.5563814
  32.0117683  98.5370973  85.7723597  31.9693862  98.7631819  84.8432129
  32.9280382  98.3034348  85.9209398  35.4583317  89.0055041  92.6704226
  35.8132705  89.2326514  93.5298692  36.1055448  89.3373417  92.0481481
  41.1881054  92.1273476  83.3753555  41.0498953  92.3175072  82.4474744
  40.8317273  92.8892859  83.8321606  29.3523180  86.1131572  89.4550567
  29.9922560  85.9720331  88.7573530  28.5200711  85.8266085  89.0789169
  41.2150434  94.1950003  88.3864826  41.6486940  94.1025293  89.2347880
  41.9282014  94.1707504  87.7484842  30.1283484  95.4134002  85.5685559
  30.9224083  94.9184322  85.3668134  29.4175177  94.8851865  85.2053265
  34.9478329  97.7952098  89.9197927  35.0015351  98.3643034  90.6875643
  34.0793110  97.9653983  89.5551964  26.4366248  89.5577084  81.6445312
  25.5063836  89.4961539  81.8615274  26.5323720  89.0353036  80.8481953
  26.3551797  86.0831897  84.2323554  26.6158614  86.9977230  84.1232714
  27.1768969  85.6156339  84.3820166  27.8276722  87.4969654  91.4022378
  28.4999775  87.2887016  90.7535027  27.0006509  87.2991740  90.9627611
  42.0765983  94.2373704  90.9197712  42.2701873  95.1419515  91.1656987
  41.9766601  93.7781123  91.7536297  33.7302294  84.1231595  93.4188039
  33.0830209  84.8221544  93.3252515  34.5003309  84.5567739  93.7864287
  37.1381092  94.3880447  96.4938592  36.9866598  94.1590999  95.5768676
  37.1285771  95.3451048  96.5069937  33.9066428  91.9612360  91.4784859
  34.8358488  92.1123519  91.3053826  33.4857458  92.0496380  90.6233505
  32.7054760  95.9863024  89.2483396  32.5665846  95.6181808  90.1209335
  31.9169356  96.5010663  89.0767354  33.3002912 101.0872120  80.5908933
  33.4754668 100.6160164  81.4054556  32.6135700 101.7137887  80.8190194
  34.2559975  95.3644627  86.6372234  33.9209808  95.3245397  87.5329884
  33.7563921  94.6989343  86.1642644  28.2304219  90.7712257  92.1624815
  28.0924017  90.0392496  92.7636354  29.1409143  90.6821157  91.8809003
  37.1919167  92.7100661  76.9109294  36.5748338  91.9847489  76.8142347
  36.7235655  93.4710021  76.5676368  30.8586520  90.4832216  91.6508495
  31.5686138  89.8425408  91.6095113  30.8155828  90.7345111  92.5734676
  38.8473299  97.4199569  94.5715074  38.7885845  96.7358789  93.9045657
  39.2492817  98.1618559  94.1195700  29.5715454  87.4697434  93.4704134
  29.0352811  87.0188172  94.1225731  28.9832162  87.6043343  92.7274599
  27.8663997 104.2361483  87.3648793  28.1060596 104.8680007  88.0427812
  27.0233194 103.8849523  87.6514152  28.9817713  86.9286085  76.0330598
  28.1047179  86.8074886  75.6692845  29.4575466  86.1372164  75.7809487
  38.8490706  95.3839153  92.8029054  37.9617485  95.0465075  92.9255453
  39.4189257  94.6522185  93.0397819  20.5019853  91.7163245  86.1272105
  21.1890893  91.4024975  85.5393121  20.3467982  92.6204610  85.8539357
  25.3054575  86.6053442  90.5557129  25.2212764  85.9979111  89.8207539
  24.4837282  87.0962460  90.5566625  32.3791859 100.0440606  89.7690297
  32.3062031 100.8495577  90.2809602  31.9369252 100.2432571  88.9438318
  32.1681639  99.2812376  83.2793119  31.3849161  99.8234056  83.3731343
  32.8674384  99.7986355  83.6787360  35.4778289  85.0907005  85.9227324
  35.9746989  84.3376967  85.6028394  34.7065271  85.1271322  85.3570533
  43.3308046  90.7947371  87.5645616  43.3197923  91.6772086  87.1939549
  42.4625426  90.4418922  87.3700153  34.8390543  99.9427440  91.9248456
  35.5518515 100.5774905  91.8524357  34.3480571 100.0391306  91.1088458
  36.5608070  93.8478692  83.4965747  35.6264348  93.9680155  83.3270452
  36.7384738  92.9451159  83.2325757  32.0613258  87.2324388  85.6499009
  31.6911045  86.6795429  86.3379914  32.5572350  86.6282522  85.0974009
  39.9480621  89.6896012  84.0315782  40.4141073  90.5224003  83.9576084
  40.3988122  89.2240993  84.7361040  29.8902456  97.6921883  92.7454027
  30.5911916  98.3258366  92.8983421  29.4197571  98.0336615  91.9849666
  38.0156852  96.0339833  81.0301934  38.2916696  95.9196428  81.9395808
  37.1461351  95.6357318  80.9914107  37.9197284  82.0576599  88.0706683
  37.0060364  82.2880825  88.2388890  38.3490385  82.1415043  88.9220715
  37.6903742  90.2466491  90.5706577  37.0375193  90.4942398  89.9159030
  38.0684122  89.4330629  90.2369054  34.6510916 100.2826184  84.6734747
  34.8333311  99.4647840  85.1362500  35.4743902 100.4993876  84.2359637
  34.9853082  99.2094369  81.9349796  35.5140848  98.6986823  81.3219958
  35.2481301  98.8936899  82.7995329  33.7391315  90.9886302  97.0572614
  33.0631952  90.8880431  97.7274989  34.5618949  90.8325515  97.5208611
  25.4870174  97.2258238  89.6785129  26.0723611  96.4801926  89.8113033
  25.2895013  97.5362195  90.5621793  28.3408830 100.2609486  84.6947572
  27.6719205 100.7455613  84.2111612  28.2021699 100.5078706  85.6090950
  20.0787829  89.7963838  88.3989572  20.1171929  89.2627429  89.1926691
  19.5728122  89.2699044  87.7800550  32.4814098 102.2953229  91.2930230
  33.0332406 102.4584851  92.0579315  32.8220292 102.8857667  90.6210255
  27.4578591  84.6428379  91.8952115  27.5219918  85.5043210  91.4829512
  27.3945712  84.0302381  91.1624473  26.9330864  86.7151511  95.5425149
  27.5602903  86.3328589  96.1562673  26.0758783  86.4965713  95.9080841
  37.3324973  97.1214487  97.1478884  37.8764877  97.7344445  96.6533839
  36.7511817  97.6794065  97.6645897  23.7096407  88.5227941  81.4743504
  24.0049848  87.6138619  81.4210558  22.8084443  88.5015680  81.1524506
  35.6182486 100.2435205  88.2793912  35.4933625  99.4424944  87.7704858
  36.2761577 100.7381398  87.7907882  27.2390654  86.5983937  87.4571052
  26.5177239  87.2119905  87.3178526  28.0283910  87.1341702  87.3787698
  37.6817394  98.0444225  89.9073462  36.7347729  97.9249576  89.8351789
  38.0300167  97.1566723  89.9899724  30.0416967  83.9338364  93.7311704
  30.5651369  84.1800660  94.4938013  29.8229301  84.7658398  93.3114841
  25.4384248  86.2042038  81.5982829  25.1096954  85.3239417  81.4157935
  25.7923619  86.1489707  82.4859218  34.6863827  97.8396941  86.1077814
  34.5388790  96.9113648  86.2885385  35.5117321  97.8617032  85.6234890
  28.5526071  86.4915008  81.9658307  28.8922144  87.0200929  81.2436915
  28.9998192  86.8295414  82.7416873  38.2897949  98.6625500  87.1942687
  39.2144497  98.4568361  87.0567138  38.1213252  98.4141901  88.1032029
  31.2469512  84.8752059  91.4161375  30.9066333  84.0759872  91.8182055
  30.5408519  85.1753770  90.8438208  31.8985984  81.9601371  89.8688698
  32.7212053  81.4861849  89.7467588  32.1424048  82.7391855  90.3687384
  30.5394219  84.9889630  80.1651599  31.2602581  85.3670882  79.6615316
  29.9159523  85.7078506  80.2686577  34.6825342  85.6934779  81.1009932
  34.8988956  86.5759416  80.7998760  34.2019409  85.3020992  80.3715574
  29.4224563  88.6520492  87.6780676  29.2769144  88.9660795  88.5704958
  28.9449767  89.2705392  87.1251575  31.2820946  85.6423040  87.7261566
  31.2682515  84.7464133  87.3893864  31.9993374  85.6493704  88.3599852
  33.1347076  86.0760380  89.7714693  32.8764854  86.9977451  89.7699024
  32.6032117  85.6790815  90.4615157  38.0793265  99.1811167  82.5504779
  38.2530143  98.6157590  81.7978631  38.5722156  99.9812062  82.3684269
  23.8970225  91.1925836  90.6168338  23.3523693  91.9685644  90.7488612
  24.7749575  91.5396641  90.4587459  30.6857842  84.5237420  82.9949136
  30.8073753  83.5954066  83.1940024  30.3959884  84.5376106  82.0827451
  33.5549032  82.2092331  86.1315856  33.5770729  82.2731664  85.1767835
  33.9717091  81.3696839  86.3256362  43.9332656  91.9447590  84.1695078
  44.3763802  91.1954915  83.7714202  43.0559167  91.9357726  83.7868810
  39.0668438  98.4977932  79.6501677  39.7619342  99.1184624  79.8688992
  39.4091588  97.6473283  79.9254055  24.6836247  90.3195732  93.5098494
  23.9417983  90.4678368  94.0963125  24.3628991  90.5803998  92.6465244
  40.9659861  95.9477637  81.1789008  41.4911185  96.2864910  80.4538328
  40.8782213  95.0124652  80.9952142  32.6279910  99.8611711  93.3078884
  32.9367036  99.6160857  94.1801584  33.4255392 100.0658349  92.8197755
  32.6500522 102.0149620  85.5384261  32.2105512 101.5225999  86.2317118
  33.4008639 101.4722588  85.2976336  25.1292861  98.2061161  85.5408889
  25.9550881  97.9064933  85.1607533  24.7786913  97.4368784  85.9898678
  30.0974394  97.5587629  87.6106563  29.4754403  96.8958334  87.3108790
  30.7679261  97.5848761  86.9280210  23.3301466  96.1247488  86.4997823
  22.4933374  95.6969662  86.3181824  23.3025111  96.3179931  87.4368614
  30.1698921  86.0369417  97.2039069  30.2187077  86.9131540  96.8216838
  30.7121435  85.4946810  96.6310712  40.6553767  96.5810541  96.4840206
  39.8649311  96.5634680  95.9444705  40.4187121  97.1198834  97.2389242
  40.7751642  93.4303007  93.7972934  40.8249647  93.2653015  94.7388457
  40.6665565  92.5630266  93.4070815  29.6587901  96.1091553  81.0865023
  29.8076021  96.7927017  80.4331696  30.4654344  96.0896643  81.6014479
  38.0655404  89.4133935  95.1132241  38.9665267  89.2740400  94.8216239
  38.1403379  89.5788390  96.0530418  32.3998210  86.7900790  93.9585427
  31.5301519  87.0834356  93.6868016  32.6357690  87.3741235  94.6792691
  42.2769839  95.8499949  94.0414956  41.9854647  96.2129929  94.8778417
  41.6641970  95.1366957  93.8628288  43.4765521  93.4152828  86.5617526
  44.3112413  93.8542632  86.7255086  43.6124650  92.9391482  85.7425772
  40.5257027  90.9732563  92.5095014  41.0011149  91.1660210  91.7013865
  39.6022592  91.0291749  92.2638397  27.4140534  92.1356730  82.0926092
  27.1686576  91.2319060  82.2906302  27.5836448  92.1373881  81.1505570
  35.1037244  83.0080407  91.4750848  35.6219187  83.7441434  91.1497336
  34.7492376  83.3144400  92.3097607  26.6836181  87.8685088  79.5912254
  25.9905426  87.9429443  78.9352289  26.4387933  87.1045432  80.1133770
  35.3549838  79.4280689  86.9951744  35.6351591  78.7603878  87.6212171
  36.1400445  79.6209785  86.4826408  33.1583306  98.6039683  78.5576771
  32.5857273  99.2229870  78.1047242  33.7316100  99.1539045  79.0916693
  39.2258696  87.8498323  90.7423319  40.1776119  87.9496421  90.7635543
  39.0562146  87.0576592  91.2521404  37.2473076  84.9353907  90.9282720
  36.6523008  85.2158919  90.2329209  36.9622772  85.4247807  91.6999461
  36.3780566  98.8876833  79.6885353  37.3111239  98.8222395  79.8918228
  36.2903779  99.7233100  79.2299886  39.0068583  98.2042704  76.6489300
  38.9282214  97.8702567  77.5425058  39.8278249  98.6964472  76.6480773
  41.7046774  91.0704443  89.8565619  41.6723094  90.1320444  90.0425303
  42.3147397  91.1488480  89.1231444  33.5430105  89.9400496  75.8992823
  34.4889209  89.8106704  75.9681241  33.1644350  89.2015158  76.3762251
  41.8541262  87.8615486  89.9023902  41.3380311  87.0773943  89.7153831
  42.7381211  87.5334203  90.0670422  39.5151989  81.6056502  85.8619715
  39.3176810  81.2971590  86.7463047  40.1251695  82.3318141  85.9917645
  47.5223324  92.1320450  88.9971656  48.2526712  91.8705738  89.5579359
  46.9130269  91.3949172  89.0373724  45.6038621  90.2728312  89.5946107
  44.8771784  90.1384277  88.9862599  45.1885908  90.5805141  90.4002825
  33.4268797  93.9918242  97.3593480  34.3471807  94.1696841  97.5533527
  33.3918380  93.0474287  97.2073179  31.7273022  87.8650472  75.8347708
  30.8204477  87.5683585  75.9110422  32.0049003  87.5680290  74.9681995
  22.6450962  89.1856836  86.2846755  22.3253747  88.3322144  85.9921129
  22.0984390  89.4005414  87.0404722  26.4230870  91.9019277  90.0016261
  26.6416880  92.8336385  90.0204295  26.8356644  91.5427251  90.7871065
  33.3435088  82.4087362  81.9891950  32.5335816  82.0634447  82.3647196
  34.0319504  82.0994906  82.5779561  35.2725636  81.4865409  83.6116246
  35.8256674  81.9060862  84.2706269  35.5095722  80.5601157  83.6539202
  31.2958735  87.4752483  99.3919010  31.1955462  88.4246839  99.3231101
  31.0780277  87.1470721  98.5195080  30.4971806  84.7237408  75.9759687
  31.3590970  85.0492306  76.2355505  30.6822151  83.9368903  75.4632753
  22.5139222  92.8059747  88.2539876  21.8202694  92.3913700  87.7409831
  23.2612213  92.8480284  87.6573295  38.6504443  83.5965934  83.1194910
  38.0703112  84.2550738  82.7372963  38.3840376  82.7743279  82.7082328
  37.1008009  82.9970992  85.3216231  37.6007788  83.1087526  84.5130550
  37.7443617  82.6932045  85.9617039  31.1590005  90.9049621  98.2084072
  30.6757087  91.7049981  98.4147961  31.2450944  90.9157566  97.2551516
  24.4275965  92.7378001  86.1305891  24.4046653  92.8365688  85.1787774
  24.7376601  93.5843152  86.4523057  27.0863343  94.7954156  90.2452506
  28.0406596  94.7638098  90.1782437  26.8875866  94.3344780  91.0602731
  27.6762725  93.3655272  92.8123303  28.4955614  93.8599351  92.8358141
  27.9499532  92.4487240  92.7840871  37.4329321  85.7566024  82.1751259
  36.5455176  86.0415675  81.9571454  37.8483310  85.5959788  81.3278536
  40.7843857  85.7812545  85.8905598  41.5604247  86.2708998  86.1630215
  40.0591991  86.2070600  86.3477467  43.2216416  86.4940165  86.9479539
  43.8160907  86.2535901  86.2372847  43.2942999  85.7747295  87.5753075
  25.4413571 100.3373776  87.2622703  25.3068039  99.5774176  86.6960701
  25.0245634 101.0614675  86.7951492  36.5772534  95.5210699  76.2699279
  37.2808385  95.7260702  76.8856934  35.8535183  96.0887461  76.5348362
  37.4070345  91.2720560  82.3901549  37.3505546  91.7289112  81.5509181
  37.9598687  90.5111245  82.2124392  41.2175151  87.0610292  83.2151668
  40.9612085  86.6606928  84.0459876  40.5928019  87.7754086  83.0901808
  45.5287488  89.8006365  85.7222960  44.9687046  89.8699555  86.4954522
  44.9230992  89.6247350  85.0022456  28.5982697 101.2343093  87.4741146
  28.4815081 102.1788525  87.3719836  27.7775144 100.9316654  87.8626945
  38.4859232  95.9593228  78.3197739  39.3204836  95.5274427  78.1375214
  38.3243575  95.7875242  79.2474633  38.1405124  92.4625342  79.6854078
  38.0853928  92.2969613  78.7442522  37.5151179  93.1701374  79.8416268
  22.9297639  87.6993406  93.5115500  23.5756503  87.1892360  94.0002725
  22.7214790  88.4362088  94.0858926  35.4551031  94.7674253  99.0107641
  36.3242191  94.9414906  98.6494276  34.9757783  95.5868670  98.8883370
  31.4501249  81.9633451  79.2639396  31.4379919  82.9075291  79.4207667
  32.3424671  81.7803596  78.9698858  29.6237211 101.8871354  90.6897075
  30.5264458 101.9194965  91.0063569  29.3974581 100.9571805  90.7043410
  31.3790813 100.6402341  87.3507153  30.4286444 100.6404203  87.2371525
  31.6823300  99.8935076  86.8343188  35.2653369  78.5576227  83.5185333
  34.4985765  78.0034714  83.6642016  35.6764074  78.6298096  84.3799485
  27.2695130  84.8461023  97.6090515  28.1326592  84.4897828  97.8193839
  26.6960541  84.5074918  98.2965919  47.1143507 106.4762879  88.4152916
  47.7521917 106.3569627  87.7116256  46.9964350 107.4243723  88.4740868
  43.9233213 106.4290307  88.3514440  43.5851725 106.3131372  87.4634975
  44.7922981 106.0281473  88.3315446  39.7820029 108.2825784  84.3411331
  39.2184894 108.1915721  83.5727619  39.6672424 107.4625688  84.8213824
  44.4052996 107.5825159  94.3100646  44.3941637 107.1877957  93.4381149
  44.5673636 106.8491232  94.9034417  37.3284461 109.7776976  87.1795552
  38.1205753 109.4367800  86.7641851  37.5681111 109.8871951  88.0997705
  45.3619588 111.9496752  79.6525796  44.7107567 112.5350832  79.2659810
  46.1563950 112.4802947  79.7120834  39.2875215 109.0385889  80.0512930
  40.0606091 108.4914876  79.9125806  39.6400614 109.9030138  80.2627392
  41.1260257 110.3662271  93.2579830  40.8350123 111.2707902  93.1426496
  41.7617242 110.4078799  93.9723899  42.0516464 107.7439120  89.8481189
  42.6480036 107.5195142  89.1338152  42.1091436 107.0023865  90.4506637
  41.6241493 105.1978555  77.6831380  41.8767013 104.6760076  76.9214843
  40.6866052 105.0344700  77.7858064  46.6684775 104.2014333  85.4906124
  47.4547865 103.7833756  85.1396541  46.9323480 105.1060425  85.6587772
  46.8394853 109.6387184  80.1894780  46.2040686 109.7121810  80.9015685
  46.5092259 110.2280782  79.5113860  52.0693203 104.1389566  86.3939102
  52.8018374 103.5688783  86.6276932  51.3132558 103.7511167  86.8345608
  41.3437781 107.1006661  79.8855755  41.2274039 106.4251564  80.5536840
  41.4540041 106.6139035  79.0687908  43.6869322 106.5616808  83.5902445
  43.3227529 106.0347429  84.3015366  44.5436438 106.1715277  83.4168930
  49.5918623  97.8511141  90.8533711  49.2601948  98.7206552  90.6294926
  48.9964236  97.5347425  91.5327741  43.3274809 101.5906708  78.5863793
  43.4949212 102.4586944  78.9534264  43.1371978 101.7533989  77.6625082
  46.0850142 110.0523687  90.2529623  45.7850866 110.9548725  90.1445431
  45.7401202 109.7855870  91.1050776  39.5362624 106.5037483  86.2866328
  38.6113120 106.3713697  86.4944020  39.7847037 107.2831703  86.7836270
  49.4847286 102.5706227  87.9327061  48.5764164 102.5021635  87.6385822
  49.4334882 103.0478172  88.7608886  43.3064030 104.0464365  79.5710460
  43.1863655 104.4921416  80.4095940  42.6116618 104.3949683  79.0123998
  36.8971435 106.1470757  87.1210117  37.0263816 106.4005236  88.0349529
  36.2168886 106.7398465  86.8014772  43.5588152 103.9895872  95.8761958
  42.7821486 104.5489792  95.8664823  44.1978715 104.4752655  96.3976828
  51.3508933 100.7722665  89.7104935  50.7083313 101.0655198  89.0644729
  50.8463861 100.6575585  90.5158131  49.0049096 104.5185838  80.3990794
  49.9166952 104.7513225  80.2238491  48.4958743 105.1022883  79.8365873
  41.8134524 106.7981326  95.4379925  42.5549209 107.3366370  95.1614749
  41.1071510 107.4247614  95.5951477  47.2889864 108.9410466  94.0352087
  47.6973220 108.4992877  93.2906719  46.5667125 108.3663094  94.2886279
  43.6420934 103.8783073  91.4085643  44.4882129 104.3022486  91.5520292
  43.5819572 103.2216697  92.1024207  47.6118679 109.5011657  87.7904375
  46.9827541 109.6657371  87.0880443  47.2244341 109.9153266  88.5615339
  51.4907910 110.4366095  85.1448739  50.8058949 110.8164996  84.5945772
  51.5751760 111.0461421  85.8780687  46.7920379 101.5387441  93.0666817
  46.5481311 102.2929502  92.5301093  47.0680310 101.9172789  93.9014064
  48.7458842 108.0826054  91.7444083  48.9575737 108.7257814  91.0678464
  48.6988590 107.2488370  91.2766013  46.3485071 100.6943874  88.6480655
  45.4869550 100.9925128  88.9397392  46.3747506 100.9114273  87.7161687
  43.1646640 109.2386065  85.0554460  43.6284986 109.5173768  84.2659083
  42.9003439 108.3369509  84.8727551  40.0570722 108.7857546  87.9934224
  40.6272079 109.2144815  87.3551708  40.6478833 108.5040131  88.6918409
  42.1015527 105.3609217  81.8644026  42.8039570 105.8130261  82.3317952
  41.7696155 104.7193036  82.4923919  40.5495888 103.9520974  96.2395235
  39.9194549 104.6337255  96.4730632  40.4431976 103.8404055  95.2948373
  35.8440860 103.6192770  87.1661159  35.0539914 103.8750298  86.6901270
  36.3352108 104.4341108  87.2713200  49.8604670 110.9598009  89.9166440
  50.6822114 110.5578196  89.6349122  49.8567073 110.8566243  90.8682556
  37.7955606 103.9837349  84.1244636  36.9986769 104.0956043  84.6428132
  37.5681198 104.3224001  83.2585526  43.6261273 110.5082052  92.0727151
  43.6905706 110.9702460  92.9085322  42.9172197 109.8779417  92.2009460
  34.1278563 103.8723260  89.5976150  34.3786602 104.7570270  89.8633726
  34.6638112 103.6927862  88.8251242  57.9510663 107.3036758  86.2651411
  57.1974371 106.7344156  86.1095416  58.0858204 107.2699422  87.2122046
  43.3409291 112.1750160  81.9406131  43.2054966 113.0201696  82.3690979
  43.8819104 112.3769437  81.1772065  39.8276631  98.2541740  98.6020486
  39.4343576  97.7007938  99.2768130  40.6442771  98.5652318  98.9927004
  36.7938689 109.6925598  82.5134056  37.3063209 110.4868848  82.6639621
  37.4461401 108.9951888  82.4467657  38.6033573 112.8091354  84.5956809
  38.7800202 113.7309319  84.4077793  39.3990407 112.4949773  85.0251189
  42.7444592  99.6699619  96.1940743  43.4854305 100.2706772  96.1145205
  42.9762515  98.9277257  95.6358785  37.8885930 104.8555986  94.4718972
  37.7739445 103.9541243  94.7726071  37.0330448 105.1019683  94.1203789
  44.9677768 112.7973726  96.0706473  44.5241622 112.0110105  95.7527377
  45.6294981 112.9852877  95.4050364  39.7264889 114.3269528  90.5967151
  40.2772314 114.1986591  89.8244145  38.8876365 114.6264417  90.2462044
  47.0659006 113.0776526  94.0987874  47.0477481 113.8985407  93.6068143
  47.9878926 112.9530602  94.3238015  43.5232060 110.5920656  94.9411383
  44.0560397 109.8308944  94.7110691  42.9946141 110.2994308  95.6835537
  46.6901755  95.6980722  90.4705024  46.3466024  96.5882363  90.3944135
  47.0580717  95.5082379  89.6074609  34.7587605 108.0214252  83.2893626
  35.5962827 108.4311261  83.0727334  34.9365873 107.0813694  83.2593820
  46.6552037 105.6889333  78.9777459  46.1398661 106.4593937  79.2165847
  46.3829346 105.0154469  79.6010521  44.2399148 100.5339034  84.0362698
  43.3840745 100.1445884  83.8568337  44.6526100 100.6130994  83.1762483
  45.7698295  98.0685377  88.4354258  45.2663091  98.0315512  87.6222063
  46.0628902  98.9778120  88.4950914  42.0141181  98.1524107  87.4420439
  42.8794178  97.9566915  87.0826329  42.0818690  97.9234458  88.3689796
  51.6286312 108.4421687  80.9130633  50.8515754 108.1032847  80.4685795
  52.3077793 108.4474311  80.2385598  46.4438341 103.5616425  80.8037241
  46.1388476 103.8762574  81.6547384  47.3968783 103.6397845  80.8464574
  44.8884772 109.7206648  82.4530195  44.3606134 108.9859408  82.1403432
  44.3872275 110.4981325  82.2070163  49.8677618 107.9155669  87.5697241
  49.2101293 108.6054930  87.6577370  50.6718018 108.3052101  87.9131227
  39.6203500 100.3826315  84.8136806  40.1947252 100.1601496  84.0809999
  40.2074482 100.4515009  85.5665407  48.6783077 106.2700041  85.6201183
  49.1914959 106.9030033  86.1222892  49.3284301 105.6701237  85.2544543
  39.9473087 102.4130776  78.8332691  39.1110399 102.7505462  79.1541966
  39.8077857 102.2779755  77.8959828  41.9226168  97.2567563  83.5411876
  41.2690580  96.9416581  82.9168490  41.8806642  96.6343304  84.2671698
  43.0337373 107.5386859  75.4565168  42.1264434 107.3076112  75.6556317
  43.5308405 106.7424478  75.6439149  45.9405452 116.2484366  78.3761854
  45.2667150 116.5516062  78.9846812  46.3271273 117.0513446  78.0267311
  45.1563908 103.7449497  87.8659523  44.2386470 103.9664444  87.7081211
  45.5724052 103.8195807  87.0071230  45.9398956 105.1440913  82.9962203
  46.6870775 105.6562310  82.6869325  46.2090545 104.8224965  83.8566597
  44.2125606 107.6399453  79.9789158  43.3036825 107.3558486  80.0761627
  44.2420690 108.0598532  79.1192465  49.4444873 111.2506043  83.7480325
  48.9907201 110.4096953  83.8045516  48.8138840 111.8867441  84.0855105
  48.3877793 102.1798029  84.9780993  47.6500550 101.6675415  85.3091235
  48.6404567 101.7398411  84.1664270  47.8877813 113.0882540  84.6830143
  48.1800787 113.6487597  83.9642509  48.3976433 113.3811101  85.4383303
  48.4889420  94.9574281  85.5722762  48.7948297  94.0971644  85.2848677
  49.2142025  95.5491901  85.3721756  34.7813776 105.3604967  83.9604360
  34.5838176 104.7674328  83.2355426  34.2260440 105.0557178  84.6780299
  42.7610500 105.2528074  86.0798953  42.8159110 104.3001910  86.0041430
  41.9501702 105.4087513  86.5640251  43.9101694 109.1808197  77.3177236
  43.4721124 108.4644056  76.8582874  44.6512135 109.4084312  76.7562328
  40.7002860 103.8705134  83.8389332  39.8870726 104.1699304  84.2454524
  41.1961854 103.4760822  84.5563814  42.8511438 113.8662891  85.7723597
  42.8087617 114.0923737  84.8432129  43.7674137 113.6326265  85.9209398
  46.2977072 104.3346958  92.6704226  46.6526459 104.5618431  93.5298692
  46.9449203 104.6665335  92.0481481  52.0274809 107.4565394  83.3753555
  51.8892707 107.6466990  82.4474744  51.6711027 108.2184777  83.8321606
  40.1916935 101.4423489  89.4550567  40.8316314 101.3012248  88.7573530
  39.3594465 101.1558003  89.0789169  52.0544188 109.5241921  88.3864826
  52.4880695 109.4317210  89.2347880  52.7675769 109.4999422  87.7484842
  40.9677239 110.7425920  85.5685559  41.7617837 110.2476240  85.3668134
  40.2568931 110.2143783  85.2053265  45.7872083 113.1244015  89.9197927
  45.8409105 113.6934952  90.6875643  44.9186865 113.2945900  89.5551964
  37.2760002 104.8869001  81.6445312  36.3457590 104.8253457  81.8615274
  37.3717474 104.3644954  80.8481953  37.1945551 101.4123814  84.2323554
  37.4552369 102.3269147  84.1232714  38.0162724 100.9448257  84.3820166
  38.6670477 102.8261571  91.4022378  39.3393530 102.6178934  90.7535027
  37.8400263 102.6283657  90.9627611  52.9159738 109.5665622  90.9197712
  53.1095628 110.4711432  91.1656987  52.8160356 109.1073041  91.7536297
  44.5696049  99.4523512  93.4188039  43.9223964 100.1513462  93.3252515
  45.3397064  99.8859656  93.7864287  47.9774846 109.7172364  96.4938592
  47.8260353 109.4882916  95.5768676  47.9679526 110.6742966  96.5069937
  44.7460183 107.2904277  91.4784859  45.6752243 107.4415437  91.3053826
  44.3251213 107.3788298  90.6233505  43.5448515 111.3154942  89.2483396
  43.4059600 110.9473726  90.1209335  42.7563111 111.8302581  89.0767354
  44.1396667 116.4164038  80.5908933  44.3148422 115.9452081  81.4054556
  43.4529455 117.0429804  80.8190194  45.0953730 110.6936544  86.6372234
  44.7603562 110.6537314  87.5329884  44.5957676 110.0281260  86.1642644
  39.0697974 106.1004174  92.1624815  38.9317772 105.3684413  92.7636354
  39.9802897 106.0113074  91.8809003  48.0312921 108.0392579  76.9109294
  47.4142092 107.3139407  76.8142347  47.5629410 108.8001939  76.5676368
  41.6980274 105.8124134  91.6508495  42.4079893 105.1717326  91.6095113
  41.6549583 106.0637029  92.5734676  49.6867053 112.7491487  94.5715074
  49.6279599 112.0650707  93.9045657  50.0886572 113.4910477  94.1195700
  40.4109208 102.7989352  93.4704134  39.8746565 102.3480090  94.1225731
  39.8225917 102.9335260  92.7274599  39.8211467 102.2578003  76.0330598
  38.9440934 102.1366804  75.6692845  40.2969220 101.4664081  75.7809487
  49.6884460 110.7131071  92.8029054  48.8011239 110.3756993  92.9255453
  50.2583011 109.9814102  93.0397819  31.3413608 107.0455163  86.1272105
  32.0284647 106.7316893  85.5393121  31.1861736 107.9496527  85.8539357
  36.1448330 101.9345359  90.5557129  36.0606518 101.3271029  89.8207539
  35.3231036 102.4254378  90.5566625  43.2185614 115.3732523  89.7690297
  43.1455785 116.1787495  90.2809602  42.7763007 115.5724489  88.9438318
  43.0075393 114.6104293  83.2793119  42.2242915 115.1525974  83.3731343
  43.7068139 115.1278273  83.6787360  46.3172044 100.4198923  85.9227324
  46.8140743  99.6668885  85.6028394  45.5459025 100.4563239  85.3570533
  54.1701801 106.1239288  87.5645616  54.1591677 107.0064004  87.1939549
  53.3019180 105.7710839  87.3700153  45.6784297 115.2719357  91.9248456
  46.3912270 115.9066822  91.8524357  45.1874326 115.3683223  91.1088458
  47.4001824 109.1770610  83.4965747  46.4658103 109.2972072  83.3270452
  47.5778493 108.2743077  83.2325757  42.9007012 102.5616306  85.6499009
  42.5304800 102.0087346  86.3379914  43.3966105 101.9574439  85.0974009
  50.7874376 105.0187929  84.0315782  51.2534828 105.8515921  83.9576084
  51.2381876 104.5532911  84.7361040  40.7296211 113.0213801  92.7454027
  41.4305670 113.6550284  92.8983421  40.2591326 113.3628532  91.9849666
  48.8550607 111.3631751  81.0301934  49.1310451 111.2488345  81.9395808
  47.9855105 110.9649235  80.9914107  48.7591038  97.3868516  88.0706683
  47.8454118  97.6172743  88.2388890  49.1884140  97.4706960  88.9220715
  48.5297497 105.5758408  90.5706577  47.8768947 105.8234316  89.9159030
  48.9077877 104.7622546  90.2369054  45.4904671 115.6118101  84.6734747
  45.6727065 114.7939757  85.1362500  46.3137657 115.8285794  84.2359637
  45.8246836 114.5386287  81.9349796  46.3534603 114.0278741  81.3219958
  46.0875056 114.2228817  82.7995329  44.5785070 106.3178219  97.0572614
  43.9025707 106.2172349  97.7274989  45.4012704 106.1617433  97.5208611
  36.3263929 112.5550156  89.6785129  36.9117366 111.8093844  89.8113033
  36.1288767 112.8654113  90.5621793  39.1802584 115.5901403  84.6947572
  38.5112959 116.0747531  84.2111612  39.0415454 115.8370624  85.6090950
  30.9181584 105.1255756  88.3989572  30.9565683 104.5919347  89.1926691
  30.4121876 104.5990962  87.7800550  43.3207853 117.6245147  91.2930230
  43.8726161 117.7876768  92.0579315  43.6614046 118.2149585  90.6210255
  38.2972346  99.9720297  91.8952115  38.3613672 100.8335127  91.4829512
  38.2339466  99.3594298  91.1624473  37.7724618 102.0443429  95.5425149
  38.3996657 101.6620506  96.1562673  36.9152537 101.8257631  95.9080841
  48.1718727 112.4506404  97.1478884  48.7158631 113.0636363  96.6533839
  47.5905572 113.0085983  97.6645897  34.5490161 103.8519858  81.4743504
  34.8443602 102.9430537  81.4210558  33.6478197 103.8307598  81.1524506
  46.4576240 115.5727122  88.2793912  46.3327379 114.7716862  87.7704858
  47.1155331 116.0673316  87.7907882  38.0784408 101.9275855  87.4571052
  37.3570994 102.5411823  87.3178526  38.8677664 102.4633620  87.3787698
  48.5211148 113.3736142  89.9073462  47.5741484 113.2541494  89.8351789
  48.8693921 112.4858640  89.9899724  40.8810722  99.2630281  93.7311704
  41.4045124  99.5092578  94.4938013  40.6623055 100.0950316  93.3114841
  36.2778003 101.5333956  81.5982829  35.9490709 100.6531335  81.4157935
  36.6317374 101.4781625  82.4859218  45.5257582 113.1688859  86.1077814
  45.3782544 112.2405566  86.2885385  46.3511075 113.1908949  85.6234890
  39.3919826 101.8206926  81.9658307  39.7315898 102.3492847  81.2436915
  39.8391946 102.1587332  82.7416873  49.1291704 113.9917417  87.1942687
  50.0538251 113.7860279  87.0567138  48.9607007 113.7433819  88.1032029
  42.0863267 100.2043976  91.4161375  41.7460087  99.4051789  91.8182055
  41.3802273 100.5045687  90.8438208  42.7379739  97.2893289  89.8688698
  43.5605808  96.8153767  89.7467588  42.9817802  98.0683773  90.3687384
  41.3787973 100.3181547  80.1651599  42.0996336 100.6962800  79.6615316
  40.7553277 101.0370424  80.2686577  45.5219096 101.0226696  81.1009932
  45.7382710 101.9051334  80.7998760  45.0413163 100.6312910  80.3715574
  40.2618317 103.9812409  87.6780676  40.1162898 104.2952713  88.5704958
  39.7843521 104.5997310  87.1251575  42.1214700 100.9714957  87.7261566
  42.1076269 100.0756051  87.3893864  42.8387128 100.9785621  88.3599852
  43.9740831 101.4052298  89.7714693  43.7158609 102.3269368  89.7699024
  43.4425871 101.0082732  90.4615157  48.9187020 114.5103085  82.5504779
  49.0923897 113.9449507  81.7978631  49.4115911 115.3103980  82.3684269
  34.7363980 106.5217754  90.6168338  34.1917448 107.2977562  90.7488612
  35.6143329 106.8688558  90.4587459  41.5251596  99.8529338  82.9949136
  41.6467507  98.9245984  83.1940024  41.2353639  99.8668024  82.0827451
  44.3942787  97.5384248  86.1315856  44.4164483  97.6023581  85.1767835
  44.8110846  96.6988757  86.3256362  54.7726411 107.2739508  84.1695078
  55.2157557 106.5246833  83.7714202  53.8952921 107.2649644  83.7868810
  49.9062192 113.8269849  79.6501677  50.6013097 114.4476542  79.8688992
  50.2485342 112.9765200  79.9254055  35.5230001 105.6487650  93.5098494
  34.7811737 105.7970285  94.0963125  35.2022746 105.9095916  92.6465244
  51.8053615 111.2769555  81.1789008  52.3304939 111.6156827  80.4538328
  51.7175968 110.3416570  80.9952142  43.4673664 115.1903628  93.3078884
  43.7760790 114.9452775  94.1801584  44.2649146 115.3950267  92.8197755
  43.4894276 117.3441538  85.5384261  43.0499266 116.8517917  86.2317118
  44.2402393 116.8014506  85.2976336  35.9686615 113.5353079  85.5408889
  36.7944635 113.2356851  85.1607533  35.6180667 112.7660701  85.9898678
  40.9368148 112.8879547  87.6106563  40.3148158 112.2250252  87.3108790
  41.6073015 112.9140679  86.9280210  34.1695220 111.4539405  86.4997823
  33.3327128 111.0261580  86.3181824  34.1418866 111.6471849  87.4368614
  41.0092676 101.3661335  97.2039069  41.0580831 102.2423458  96.8216838
  41.5515190 100.8238728  96.6310712  51.4947521 111.9102458  96.4840206
  50.7043065 111.8926597  95.9444705  51.2580876 112.4490752  97.2389242
  51.6145396 108.7594925  93.7972934  51.6643401 108.5944932  94.7388457
  51.5059320 107.8922184  93.4070815  40.4981655 111.4383470  81.0865023
  40.6469776 112.1218935  80.4331696  41.3048099 111.4188560  81.6014479
  48.9049159 104.7425853  95.1132241  49.8059022 104.6032318  94.8216239
  48.9797133 104.9080308  96.0530418  43.2391964 102.1192708  93.9585427
  42.3695274 102.4126274  93.6868016  43.4751445 102.7033153  94.6792691
  53.1163593 111.1791866  94.0414956  52.8248402 111.5421847  94.8778417
  52.5035725 110.4658875  93.8628288  54.3159276 108.7444746  86.5617526
  55.1506167 109.1834550  86.7255086  54.4518404 108.2683399  85.7425772
  51.3650782 106.3024481  92.5095014  51.8404903 106.4952127  91.7013865
  50.4416347 106.3583667  92.2638397  38.2534288 107.4648648  82.0926092
  38.0080330 106.5610978  82.2906302  38.4230203 107.4665799  81.1505570
  45.9430998  98.3372324  91.4750848  46.4612942  99.0733351  91.1497336
  45.5886131  98.6436318  92.3097607  37.5229936 103.1977006  79.5912254
  36.8299181 103.2721361  78.9352289  37.2781688 102.4337349  80.1133770
  46.1943592  94.7572607  86.9951744  46.4745346  94.0895796  87.6212171
  46.9794199  94.9501703  86.4826408  43.9977061 113.9331601  78.5576771
  43.4251028 114.5521788  78.1047242  44.5709854 114.4830963  79.0916693
  50.0652451 103.1790241  90.7423319  51.0169873 103.2788339  90.7635543
  49.8955901 102.3868510  91.2521404  48.0866830 100.2645824  90.9282720
  47.4916762 100.5450837  90.2329209  47.8016527 100.7539725  91.6999461
  47.2174320 114.2168751  79.6885353  48.1504994 114.1514313  79.8918228
  47.1297533 115.0525018  79.2299886  49.8462337 113.5334621  76.6489300
  49.7675969 113.1994485  77.5425058  50.6672004 114.0256389  76.6480773
  52.5440528 106.3996361  89.8565619  52.5116848 105.4612361  90.0425303
  53.1541152 106.4780397  89.1231444  44.3823859 105.2692414  75.8992823
  45.3282964 105.1398622  75.9681241  44.0038104 104.5307076  76.3762251
  52.6935017 103.1907404  89.9023902  52.1774065 102.4065861  89.7153831
  53.5774965 102.8626121  90.0670422  50.3545744  96.9348420  85.8619715
  50.1570565  96.6263508  86.7463047  50.9645449  97.6610059  85.9917645
  58.3617078 107.4612368  88.9971656  59.0920467 107.1997656  89.5579359
  57.7524024 106.7241089  89.0373724  56.4432375 105.6020230  89.5946107
  55.7165539 105.4676195  88.9862599  56.0279662 105.9097059  90.4002825
  44.2662552 109.3210160  97.3593480  45.1865561 109.4988759  97.5533527
  44.2312135 108.3766205  97.2073179  42.5666776 103.1942390  75.8347708
  41.6598232 102.8975503  75.9110422  42.8442757 102.8972208  74.9681995
  33.4844717 104.5148753  86.2846755  33.1647501 103.6614062  85.9921129
  32.9378145 104.7297332  87.0404722  37.2624624 107.2311194  90.0016261
  37.4810634 108.1628302  90.0204295  37.6750398 106.8719169  90.7871065
  44.1828842  97.7379280  81.9891950  43.3729570  97.3926365  82.3647196
  44.8713259  97.4286823  82.5779561  46.1119390  96.8157327  83.6116246
  46.6650429  97.2352780  84.2706269  46.3489477  95.8893075  83.6539202
  42.1352490 102.8044400  99.3919010  42.0349216 103.7538757  99.3231101
  41.9174032 102.4762639  98.5195080  41.3365561 100.0529325  75.9759687
  42.1984725 100.3784224  76.2355505  41.5215905  99.2660821  75.4632753
  33.3532977 108.1351665  88.2539876  32.6596448 107.7205618  87.7409831
  34.1005968 108.1772201  87.6573295  49.4898197  98.9257852  83.1194910
  48.9096866  99.5842656  82.7372963  49.2234130  98.1035196  82.7082328
  47.9401764  98.3262909  85.3216231  48.4401542  98.4379444  84.5130550
  48.5837372  98.0223962  85.9617039  41.9983760 106.2341539  98.2084072
  41.5150841 107.0341899  98.4147961  42.0844699 106.2449484  97.2551516
  35.2669719 108.0669919  86.1305891  35.2440407 108.1657606  85.1787774
  35.5770356 108.9135069  86.4523057  37.9257097 110.1246074  90.2452506
  38.8800351 110.0930016  90.1782437  37.7269621 109.6636697  91.0602731
  38.5156479 108.6947190  92.8123303  39.3349368 109.1891268  92.8358141
  38.7893287 107.7779158  92.7840871  48.2723075 101.0857942  82.1751259
  47.3848930 101.3707593  81.9571454  48.6877065 100.9251705  81.3278536
  51.6237612 101.1104463  85.8905598  52.3998002 101.6000916  86.1630215
  50.8985746 101.5362517  86.3477467  54.0610170 101.8232082  86.9479539
  54.6554661 101.5827818  86.2372847  54.1336754 101.1039213  87.5753075
  47.4166289 110.8502617  76.2699279  48.1202139 111.0552619  76.8856934
  46.6928938 111.4179379  76.5348362  48.2464099 106.6012478  82.3901549
  48.1899301 107.0581029  81.5509181  48.7992442 105.8403163  82.2124392
  52.0568905 102.3902210  83.2151668  51.8005839 101.9898846  84.0459876
  51.4321773 103.1046004  83.0901808  56.3681243 105.1298283  85.7222960
  55.8080801 105.1991472  86.4954522  55.7624746 104.9539268  85.0022456
  49.3252986 111.2885146  78.3197739  50.1598590 110.8566344  78.1375214
  49.1637329 111.1167160  79.2474633  48.9798879 107.7917259  79.6854078
  48.9247682 107.6261531  78.7442522  48.3544934 108.4993292  79.8416268
  33.7691393 103.0285324  93.5115500  34.4150257 102.5184278  94.0002725
  33.5608545 103.7654005  94.0858926  46.2944786 110.0966171  99.0107641
  47.1635945 110.2706823  98.6494276  45.8151537 110.9160588  98.8883370
  42.2895004  97.2925368  79.2639396  42.2773674  98.2367208  79.4207667
  43.1818426  97.1095514  78.9698858  40.4630966 117.2163272  90.6897075
  41.3658213 117.2486882  91.0063569  40.2368336 116.2863723  90.7043410
  42.2184568 115.9694259  87.3507153  41.2680199 115.9696120  87.2371525
  42.5217054 115.2226993  86.8343188  46.1047123  93.8868145  83.5185333
  45.3379519  93.3326632  83.6642016  46.5157828  93.9590014  84.3799485
  38.1088884 100.1752941  97.6090515  38.9720346  99.8189746  97.8193839
  37.5354295  99.8366836  98.2965919  57.9537261 121.8054797  88.4152916
  58.5915671 121.6861544  87.7116256  57.8358104 122.7535641  88.4740868
  54.7626968 121.7582225  88.3514440  54.4245479 121.6423290  87.4634975
  55.6316736 121.3573390  88.3315446  52.4635247 120.5270473  77.6831380
  52.7160768 120.0051994  76.9214843  51.5259806 120.3636618  77.7858064
  57.5078530 119.5306251  85.4906124  58.2941619 119.1125674  85.1396541
  57.7717234 120.4352343  85.6587772  62.9086957 119.4681484  86.3939102
  63.6412129 118.8980701  86.6276932  62.1526313 119.0803085  86.8345608
  54.5263077 121.8908726  83.5902445  54.1621284 121.3639347  84.3015366
  55.3830193 121.5007195  83.4168930  60.4312377 113.1803058  90.8533711
  60.0995702 114.0498469  90.6294926  59.8357991 112.8639342  91.5327741
  54.1668564 116.9198625  78.5863793  54.3342966 117.7878862  78.9534264
  53.9765733 117.0825907  77.6625082  60.3241041 117.8998144  87.9327061
  59.4157918 117.8313553  87.6385822  60.2728636 118.3770089  88.7608886
  54.1457785 119.3756283  79.5710460  54.0257410 119.8213334  80.4095940
  53.4510373 119.7241600  79.0123998  54.3981906 119.3187790  95.8761958
  53.6215241 119.8781710  95.8664823  55.0372470 119.8044573  96.3976828
  62.1902687 116.1014583  89.7104935  61.5477067 116.3947116  89.0644729
  61.6857616 115.9867503  90.5158131  59.8442851 119.8477756  80.3990794
  60.7560707 120.0805143  80.2238491  59.3352498 120.4314800  79.8365873
  54.4814688 119.2074991  91.4085643  55.3275884 119.6314404  91.5520292
  54.4213326 118.5508615  92.1024207  57.6314134 116.8679359  93.0666817
  57.3875066 117.6221419  92.5301093  57.9074064 117.2464707  93.9014064
  59.5852597 123.4117971  91.7444083  59.7969492 124.0549731  91.0678464
  59.5382345 122.5780288  91.2766013  57.1878826 116.0235792  88.6480655
  56.3263305 116.3217046  88.9397392  57.2141260 116.2406191  87.7161687
  52.9409281 120.6901135  81.8644026  53.6433324 121.1422179  82.3317952
  52.6089910 120.0484954  82.4923919  51.3889643 119.2812892  96.2395235
  50.7588303 119.9629172  96.4730632  51.2825730 119.1695973  95.2948373
  48.6349360 119.3129267  84.1244636  47.8380524 119.4247961  84.6428132
  48.4074953 119.6515919  83.2585526  68.7904418 122.6328675  86.2651411
  68.0368126 122.0636073  86.1095416  68.9251959 122.5991340  87.2122046
  50.6670385 113.5833657  98.6020486  50.2737331 113.0299856  99.2768130
  51.4836526 113.8944236  98.9927004  53.5838346 114.9991536  96.1940743
  54.3248060 115.5998690  96.1145205  53.8156269 114.2569174  95.6358785
  57.5295509 111.0272639  90.4705024  57.1859779 111.9174281  90.3944135
  57.8974472 110.8374297  89.6074609  57.4945792 121.0181251  78.9777459
  56.9792415 121.7885855  79.2165847  57.2223100 120.3446387  79.6010521
  55.0792903 115.8630951  84.0362698  54.2234499 115.4737802  83.8568337
  55.4919855 115.9422912  83.1762483  56.6092050 113.3977295  88.4354258
  56.1056845 113.3607430  87.6222063  56.9022656 114.3070037  88.4950914
  52.8534935 113.4816024  87.4420439  53.7187932 113.2858833  87.0826329
  52.9212444 113.2526376  88.3689796  62.4680066 123.7713605  80.9130633
  61.6909509 123.4324765  80.4685795  63.1471547 123.7766228  80.2385598
  57.2832095 118.8908343  80.8037241  56.9782231 119.2054492  81.6547384
  58.2362537 118.9689762  80.8464574  60.7071373 123.2447586  87.5697241
  60.0495047 123.9346848  87.6577370  61.5111772 123.6344018  87.9131227
  50.4597255 115.7118232  84.8136806  51.0341006 115.4893414  84.0809999
  51.0468237 115.7806927  85.5665407  59.5176832 121.5991959  85.6201183
  60.0308714 122.2321951  86.1222892  60.1678056 120.9993155  85.2544543
  50.7866842 117.7422693  78.8332691  49.9504154 118.0797380  79.1541966
  50.6471611 117.6071673  77.8959828  52.7619922 112.5859481  83.5411876
  52.1084335 112.2708498  82.9168490  52.7200396 111.9635222  84.2671698
  55.9957663 119.0741415  87.8659523  55.0780224 119.2956362  87.7081211
  56.4117806 119.1487725  87.0071230  56.7792710 120.4732830  82.9962203
  57.5264529 120.9854228  82.6869325  57.0484300 120.1516883  83.8566597
  59.2271548 117.5089947  84.9780993  58.4894304 116.9967333  85.3091235
  59.4798321 117.0690328  84.1664270  59.3283175 110.2866199  85.5722762
  59.6342052 109.4263562  85.2848677  60.0535780 110.8783819  85.3721756
  53.6004255 120.5819992  86.0798953  53.6552864 119.6293828  86.0041430
  52.7895457 120.7379431  86.5640251  51.5396615 119.1997051  83.8389332
  50.7264480 119.4991222  84.2454524  52.0355609 118.8052740  84.5563814
  57.1370826 119.6638876  92.6704226  57.4920214 119.8910349  93.5298692
  57.7842957 119.9957253  92.0481481  62.8668563 122.7857312  83.3753555
  62.7286462 122.9758908  82.4474744  62.5104782 123.5476695  83.8321606
  51.0310689 116.7715407  89.4550567  51.6710069 116.6304166  88.7573530
  50.1988220 116.4849920  89.0789169  62.8937943 124.8533839  88.3864826
  63.3274449 124.7609128  89.2347880  63.6069523 124.8291339  87.7484842
  48.0339306 116.7415732  84.2323554  48.2946123 117.6561065  84.1232714
  48.8556478 116.2740174  84.3820166  49.5064231 118.1553489  91.4022378
  50.1787284 117.9470851  90.7535027  48.6794018 117.9575575  90.9627611
  55.4089803 114.7815430  93.4188039  54.7617718 115.4805380  93.3252515
  56.1790818 115.2151574  93.7864287  52.5374029 121.1416051  91.6508495
  53.2473647 120.5009244  91.6095113  52.4943337 121.3928946  92.5734676
  51.2502963 118.1281269  93.4704134  50.7140320 117.6772008  94.1225731
  50.6619671 118.2627178  92.7274599  50.6605222 117.5869921  76.0330598
  49.7834688 117.4658721  75.6692845  51.1362975 116.7955999  75.7809487
  46.9842084 117.2637277  90.5557129  46.9000273 116.6562947  89.8207539
  46.1624791 117.7546295  90.5566625  57.1565798 115.7490840  85.9227324
  57.6534498 114.9960803  85.6028394  56.3852780 115.7855157  85.3570533
  65.0095555 121.4531206  87.5645616  64.9985432 122.3355921  87.1939549
  64.1412935 121.1002757  87.3700153  53.7400767 117.8908223  85.6499009
  53.3698554 117.3379264  86.3379914  54.2359859 117.2866357  85.0974009
  61.6268130 120.3479847  84.0315782  62.0928582 121.1807839  83.9576084
  62.0775631 119.8824829  84.7361040  59.5984793 112.7160434  88.0706683
  58.6847873 112.9464661  88.2388890  60.0277894 112.7998878  88.9220715
  59.3691251 120.9050326  90.5706577  58.7162702 121.1526233  89.9159030
  59.7471631 120.0914464  90.2369054  55.4178824 121.6470137  97.0572614
  54.7419461 121.5464266  97.7274989  56.2406458 121.4909351  97.5208611
  49.1366100 115.3012214  91.8952115  49.2007427 116.1627045  91.4829512
  49.0733221 114.6886216  91.1624473  48.6118373 117.3735347  95.5425149
  49.2390412 116.9912424  96.1562673  47.7546292 117.1549549  95.9080841
  48.9178163 117.2567772  87.4571052  48.1964748 117.8703740  87.3178526
  49.7071418 117.7925537  87.3787698  51.7204476 114.5922199  93.7311704
  52.2438878 114.8384496  94.4938013  51.5016810 115.4242234  93.3114841
  47.1171757 116.8625874  81.5982829  46.7884463 115.9823252  81.4157935
  47.4711128 116.8073542  82.4859218  50.2313580 117.1498843  81.9658307
  50.5709653 117.6784765  81.2436915  50.6785701 117.4879249  82.7416873
  52.9257021 115.5335894  91.4161375  52.5853842 114.7343707  91.8182055
  52.2196028 115.8337605  90.8438208  53.5773493 112.6185207  89.8688698
  54.3999562 112.1445685  89.7467588  53.8211557 113.3975690  90.3687384
  52.2181728 115.6473465  80.1651599  52.9390090 116.0254718  79.6615316
  51.5947032 116.3662342  80.2686577  56.3612850 116.3518614  81.1009932
  56.5776465 117.2343252  80.7998760  55.8806918 115.9604827  80.3715574
  51.1012072 119.3104327  87.6780676  50.9556653 119.6244630  88.5704958
  50.6237276 119.9289227  87.1251575  52.9608455 116.3006875  87.7261566
  52.9470024 115.4047968  87.3893864  53.6780883 116.3077539  88.3599852
  54.8134585 116.7344215  89.7714693  54.5552363 117.6561286  89.7699024
  54.2819626 116.3374650  90.4615157  52.3645351 115.1821255  82.9949136
  52.4861262 114.2537902  83.1940024  52.0747393 115.1959941  82.0827451
  55.2336541 112.8676166  86.1315856  55.2558238 112.9315499  85.1767835
  55.6504600 112.0280674  86.3256362  65.6120165 122.6031425  84.1695078
  66.0551311 121.8538751  83.7714202  64.7346676 122.5941562  83.7868810
  51.8486430 116.6953253  97.2039069  51.8974586 117.5715376  96.8216838
  52.3908944 116.1530646  96.6310712  62.4539151 124.0886842  93.7972934
  62.5037156 123.9236850  94.7388457  62.3453074 123.2214101  93.4070815
  59.7442913 120.0717770  95.1132241  60.6452776 119.9324235  94.8216239
  59.8190888 120.2372225  96.0530418  54.0785719 117.4484625  93.9585427
  53.2089028 117.7418191  93.6868016  54.3145199 118.0325070  94.6792691
  65.1553030 124.0736664  86.5617526  65.9899921 124.5126468  86.7255086
  65.2912159 123.5975317  85.7425772  62.2044536 121.6316399  92.5095014
  62.6798658 121.8244045  91.7013865  61.2810101 121.6875584  92.2638397
  56.7824753 113.6664242  91.4750848  57.3006696 114.4025269  91.1497336
  56.4279885 113.9728235  92.3097607  48.3623690 118.5268923  79.5912254
  47.6692935 118.6013278  78.9352289  48.1175442 117.7629267  80.1133770
  57.0337347 110.0864525  86.9951744  57.3139100 109.4187714  87.6212171
  57.8187954 110.2793620  86.4826408  60.9046205 118.5082159  90.7423319
  61.8563628 118.6080256  90.7635543  60.7349655 117.7160427  91.2521404
  58.9260584 115.5937742  90.9282720  58.3310517 115.8742755  90.2329209
  58.6410281 116.0831643  91.6999461  63.3834283 121.7288278  89.8565619
  63.3510603 120.7904279  90.0425303  63.9934906 121.8072315  89.1231444
  55.2217614 120.5984331  75.8992823  56.1676718 120.4690539  75.9681241
  54.8431859 119.8598993  76.3762251  63.5328771 118.5199322  89.9023902
  63.0167820 117.7357778  89.7153831  64.4168720 118.1918038  90.0670422
  61.1939498 112.2640337  85.8619715  60.9964319 111.9555426  86.7463047
  61.8039204 112.9901976  85.9917645  69.2010833 122.7904285  88.9971656
  69.9314221 122.5289573  89.5579359  68.5917778 122.0533007  89.0373724
  67.2826130 120.9312148  89.5946107  66.5559293 120.7968113  88.9862599
  66.8673417 121.2388976  90.4002825  53.4060531 118.5234308  75.8347708
  52.4991986 118.2267420  75.9110422  53.6836512 118.2264126  74.9681995
  55.0222597 113.0671197  81.9891950  54.2123325 112.7218282  82.3647196
  55.7107013 112.7578741  82.5779561  56.9513145 112.1449244  83.6116246
  57.5044183 112.5644698  84.2706269  57.1883231 111.2184992  83.6539202
  52.9746244 118.1336318  99.3919010  52.8742971 119.0830675  99.3231101
  52.7567786 117.8054557  98.5195080  52.1759315 115.3821243  75.9759687
  53.0378479 115.7076141  76.2355505  52.3609660 114.5952739  75.4632753
  60.3291952 114.2549769  83.1194910  59.7490621 114.9134573  82.7372963
  60.0627885 113.4327114  82.7082328  58.7795518 113.6554827  85.3216231
  59.2795297 113.7671362  84.5130550  59.4231126 113.3515880  85.9617039
  59.1116830 116.4149860  82.1751259  58.2242685 116.6999510  81.9571454
  59.5270819 116.2543623  81.3278536  62.4631366 116.4396381  85.8905598
  63.2391756 116.9292833  86.1630215  61.7379500 116.8654435  86.3477467
  64.9003925 117.1524000  86.9479539  65.4948416 116.9119736  86.2372847
  64.9730508 116.4331131  87.5753075  59.0857854 121.9304396  82.3901549
  59.0293055 122.3872947  81.5509181  59.6386196 121.1695080  82.2124392
  62.8962660 117.7194128  83.2151668  62.6399594 117.3190763  84.0459876
  62.2715528 118.4337921  83.0901808  67.2074997 120.4590201  85.7222960
  66.6474555 120.5283390  86.4954522  66.6018501 120.2831185  85.0022456
  59.8192633 123.1209177  79.6854078  59.7641437 122.9553448  78.7442522
  59.1938688 123.8285210  79.8416268  53.1288758 112.6217286  79.2639396
  53.1167428 113.5659126  79.4207667  54.0212180 112.4387431  78.9698858
  56.9440878 109.2160063  83.5185333  56.1773274 108.6618549  83.6642016
  57.3551583 109.2881931  84.3799485  48.9482639 115.5044858  97.6090515
  49.8114101 115.1481663  97.8193839  48.3748050 115.1658753  98.2965919
  70.1676929 125.6158116  85.5722762  70.4735806 124.7555480  85.2848677
  70.8929534 126.2075736  85.3721756  67.8731101 125.4156442  86.9951744
  68.1532855 124.7479631  87.6212171  68.6581708 125.6085538  86.4826408
  72.0333253 127.5932255  85.8619715  71.8358074 127.2847343  86.7463047
  72.6432958 128.3193894  85.9917645  67.7834632 124.5451980  83.5185333
  67.0167028 123.9910467  83.6642016  68.1945337 124.6173849  84.3799485
   3.7568490  22.1657331  75.1398222   4.3946900  22.0464079  74.4361562
   3.6389333  23.1138175  75.1986174   1.0477979  23.2719611  81.0345952
   1.0366620  22.8772409  80.1626456   1.2098619  22.5385684  81.6279724
   2.0044571  27.6391203  66.3771103   1.3532551  28.2245284  65.9905117
   2.7988934  28.1697398  66.4366140   3.3109759  19.8908785  72.2151430
   4.0972848  19.4728208  71.8641847   3.5748463  20.7954877  72.3833079
   3.4819836  25.3281635  66.9140087   2.8465669  25.4016262  67.6260992
   3.1517242  25.9175234  66.2359166   8.7118186  19.8284018  73.1184409
   9.4443358  19.2583235  73.3522238   7.9557542  19.4405619  73.5590914
   2.7275126  25.7418138  76.9774930   2.4275849  26.6443177  76.8690737
   2.3826185  25.4750322  77.8296083   6.1272270  18.2600679  74.6572367
   5.2189147  18.1916087  74.3631128   6.0759865  18.7372624  75.4854193
   7.9933916  16.4617117  76.4350241   7.3508296  16.7549650  75.7890036
   7.4888844  16.3470037  77.2403438   5.6474080  20.2080290  67.1236101
   6.5591936  20.4407677  66.9483798   5.1383727  20.7917334  66.5611179
   3.9314847  24.6304918  80.7597393   4.3398203  24.1887329  80.0152025
   3.2092109  24.0557546  81.0131586   4.2543662  25.1906109  74.5149682
   3.6252524  25.3551823  73.8125750   3.8669324  25.6047718  75.2860646
   8.1332894  26.1260547  71.8694046   7.4483932  26.5059448  71.3191079
   8.2176743  26.7355873  72.6025994   3.4345363  17.2281893  79.7912124
   3.1906294  17.9823954  79.2546399   3.7105293  17.6067241  80.6259371
   5.3883825  23.7720506  78.4689389   5.6000721  24.4152265  77.7923770
   5.3413574  22.9382822  78.0011319   6.5029653  26.6492461  76.6411747
   7.3247097  26.2472648  76.3594428   6.4992056  26.5460695  77.5927862
  14.5935646  22.9931209  72.9896718  13.8399355  22.4238608  72.8340723
  14.7283188  22.9593874  73.9367353   1.6102751  28.4868178  82.7951780
   1.1666605  27.7004557  82.4772684   2.2719964  28.6747329  82.1295670
   3.7083989  28.7670978  80.8233181   3.6902464  29.5879859  80.3313450
   4.6303909  28.6425053  81.0483322   3.2977021  21.3783785  65.7022766
   2.7823644  22.1488389  65.9411153   3.0254329  20.7048921  66.3255828
   8.2711295  24.1316139  67.6375940   7.4940738  23.7927299  67.1931102
   8.9502776  24.1368763  66.9630905   3.0863324  19.2510877  67.5282547
   2.7813459  19.5657026  68.3792690   4.0393766  19.3292297  67.5709880
   1.5309756  25.4101100  69.1775501   1.0031117  24.6753860  68.8648739
   1.0297258  26.1875776  68.9315470   6.5102602  23.6050121  74.2942548
   5.8526276  24.2949382  74.3822676   7.3143001  23.9946553  74.6376534
   5.3208061  21.9594493  72.3446489   5.8339942  22.5924485  72.8468199
   5.9709284  21.3595689  71.9789849   2.5830435  31.9378818  65.1007160
   1.9092134  32.2410514  65.7092118   2.9696257  32.7407898  64.7512617
   1.7988891  19.4343949  74.5904830   0.8811453  19.6558896  74.4326518
   2.2149035  19.5090259  73.7316537   2.5823939  20.8335365  69.7207510
   3.3295758  21.3456762  69.4114632   2.8515529  20.5119417  70.5811904
   6.0869857  26.9400495  70.4725632   5.6332184  26.0991405  70.5290822
   5.4563823  27.5761893  70.8100412   5.0302776  17.8692481  71.7026299
   4.2925533  17.3569867  72.0336542   5.2829550  17.4292862  70.8909576
   4.5302796  28.7776991  71.4075450   4.8225770  29.3382049  70.6887816
   5.0401417  29.0705552  72.1628609   2.9402055  20.0241410  79.3949532
   3.2951443  20.2512883  80.2543998   3.5874186  20.3559787  78.7726788
   8.6699792  23.1459846  70.0998861   8.5317691  23.3361442  69.1720051
   8.3136011  23.9079229  70.5566913   8.6969172  25.2136373  75.1110133
   9.1305678  25.1211662  75.9593187   9.4100752  25.1893873  74.4730149
   2.4297066  28.8138467  76.6443234   2.4834089  29.3829403  77.4120949
   1.5611848  28.9840352  76.2797271   9.5584721  25.2560074  77.6443018
   9.7520611  26.1605884  77.8902293   9.4585339  24.7967493  78.4781603
   4.6199830  25.4066816  83.2183899   4.4685336  25.1777368  82.3013983
   4.6104509  26.3637418  83.2315244   1.3885166  22.9798729  78.2030165
   2.3177226  23.1309889  78.0299133   0.9676196  23.0682750  77.3478812
   1.7378713  26.3830996  73.3617541   1.4028546  26.3431766  74.2575191
   1.2382659  25.7175712  72.8887951   4.6737905  23.7287031  63.6354601
   4.0567075  23.0033859  63.5387653   4.2054393  24.4896391  63.2921675
   6.3292036  28.4385939  81.2960381   6.2704583  27.7545159  80.6290964
   6.7311555  29.1804929  80.8441007   6.3309444  26.4025523  79.5274361
   5.4436222  26.0651445  79.6500759   6.9007995  25.6708554  79.7643126
  10.8126784  21.8133740  74.2890922  10.8016660  22.6958456  73.9184855
   9.9444164  21.4605291  74.0945459   2.3209281  30.9613809  78.6493762
   3.0337253  31.5961274  78.5769664   1.8299309  31.0577675  77.8333764
   4.0426808  24.8665062  70.2211054   3.1083086  24.9866524  70.0515758
   4.2203476  23.9637529  69.9571064   7.4299359  20.7082381  70.7561088
   7.8959811  21.5410373  70.6821391   7.8806859  20.2427363  71.4606347
   5.4975590  27.0526202  67.7547240   5.7735434  26.9382797  68.6641114
   4.6280089  26.6543687  67.7159413   5.1722480  21.2652860  77.2951884
   4.5193930  21.5128768  76.6404336   5.5502860  20.4516998  76.9614361
   2.1329654  31.3012553  71.3980054   2.3152049  30.4834209  71.8607806
   2.9562640  31.5180246  70.9604944   2.4671819  30.2280738  68.6595102
   2.9959586  29.7173193  68.0465264   2.7300039  29.9123269  69.5240635
   1.2210053  22.0072671  83.7817921   0.5450690  21.9066801  84.4520296
   2.0437687  21.8511885  84.2453918   4.8143710  28.1400856  83.8724191
   5.3583614  28.7530814  83.3779146   4.2330555  28.6980435  84.3891204
   3.1001223  31.2621574  75.0039219   2.9752363  30.4611314  74.4950164
   3.7580314  31.7567768  74.5153189   5.1636132  29.0630594  76.6318769
   4.2166467  28.9435945  76.5597096   5.5118905  28.1753092  76.7145030
   2.1682565  28.8583311  72.8323121   2.0207527  27.9300018  73.0130691
   2.9936058  28.8803401  72.3480196   5.7716687  29.6811869  73.9187994
   6.6963234  29.4754731  73.7812445   5.6031990  29.4328270  74.8277335
   5.5612003  30.1997537  69.2750085   5.7348881  29.6343959  68.5223938
   6.0540894  30.9998432  69.0929575  11.4151394  22.9633960  70.8940385
  11.8582540  22.2141285  70.4959508  10.5377904  22.9544096  70.5114117
   6.5487176  29.5164301  66.3746984   7.2438080  30.1370994  66.5934298
   6.8910326  28.6659652  66.6499361   8.4478599  26.9664007  67.9034314
   8.9729923  27.3051279  67.1783634   8.3600951  26.0311022  67.7197449
   8.1372505  27.5996910  83.2085512   7.3468048  27.5821049  82.6690012
   7.9005859  28.1385204  83.9634549   8.2570380  24.4489377  80.5218241
   8.3068385  24.2839384  81.4633764   8.1484303  23.5816636  80.1316122
   5.5474142  20.4320305  81.8377548   6.4484005  20.2926770  81.5461545
   5.6222117  20.5974759  82.7775725   9.7588577  26.8686318  80.7660262
   9.4673385  27.2316299  81.6023723   9.1460708  26.1553326  80.5873594
  10.9584259  24.4339198  73.2862833  11.7931150  24.8729002  73.4500393
  11.0943388  23.9577851  72.4671078   8.0075765  21.9918933  79.2340320
   8.4829886  22.1846579  78.4259172   7.0841330  22.0478119  78.9883704
   6.7077434  18.8684693  77.4668626   7.6594857  18.9682791  77.4880850
   6.5380884  18.0762961  77.9766710   4.7291813  15.9540276  77.6528027
   4.1341745  16.2345289  76.9574516   4.4441510  16.4434177  78.4244768
   3.8599304  29.9063203  66.4130659   4.7929977  29.8408765  66.6163535
   3.7722517  30.7419470  65.9545192   6.4887320  29.2229073  63.3734607
   6.4100952  28.8888937  64.2670365   7.3096987  29.7150841  63.3726079
   9.1865512  22.0890813  76.5810926   9.1541832  21.1506813  76.7670609
   9.7966135  22.1674849  75.8476751   1.0248842  20.9586866  62.6238130
   1.9707947  20.8293074  62.6926548   0.6463087  20.2201527  63.1007558
   9.3360000  18.8801856  76.6269209   8.8199049  18.0960313  76.4399138
  10.2199949  18.5520573  76.7915728  15.0042061  23.1506819  75.7216962
  15.7345450  22.8892108  76.2824666  14.3949007  22.4135541  75.7619030
  13.0857359  21.2914682  76.3191414  12.3590522  21.1570647  75.7107905
  12.6704645  21.5991511  77.1248132   0.9087535  25.0104612  84.0838787
   1.8290544  25.1883211  84.2778833   0.8737118  24.0660657  83.9318486
   4.9148059  16.7752394  68.8996565   4.0273914  17.0602045  68.6816760
   5.3302048  16.6146157  68.0523842   8.2662595  16.7998915  72.6150905
   9.0422985  17.2895367  72.8875521   7.5410729  17.2256969  73.0722774
  10.7035154  17.5126534  73.6724845  11.2979644  17.2722270  72.9618153
  10.7761737  16.7933665  74.2998382   4.0591272  26.5397069  62.9944585
   4.7627122  26.7447071  63.6102241   3.3353921  27.1073831  63.2593669
   4.8889082  22.2906930  69.1146856   4.8324284  22.7475481  68.2754488
   5.4417425  21.5297615  68.9369698   8.6993888  18.0796662  69.9396975
   8.4430823  17.6793297  70.7705183   8.0746756  18.7940456  69.8147114
  13.0106226  20.8192735  72.4468266  12.4505784  20.8885924  73.2199828
  12.4049730  20.6433720  71.7267763   5.9677970  26.9779598  65.0443045
   6.8023574  26.5460796  64.8620520   5.8062313  26.8061612  65.9719940
   5.6223862  23.4811711  66.4099385   5.5672666  23.3155983  65.4687829
   4.9969917  24.1887744  66.5661574   2.9369769  25.7860623  85.7352947
   3.8060929  25.9601275  85.3739582   2.4576520  26.6055040  85.6128677
  14.5962245  37.4949249  75.1398222  15.2340655  37.3755996  74.4361562
  14.4783088  38.4430093  75.1986174  11.4051951  37.4476677  75.0759747
  11.0670463  37.3317742  74.1880282  12.2741719  37.0467842  75.0560753
   7.2638767  39.3012153  71.0656638   6.7003632  39.2102090  70.2972926
   7.1491162  38.4812058  71.5459130  11.8871734  38.6011529  81.0345952
  11.8760375  38.2064327  80.1626456  12.0492373  37.8677601  81.6279724
   4.8103199  40.7963345  73.9040858   5.6024491  40.4554170  73.4887158
   5.0499849  40.9058320  74.8243012  12.8438325  42.9683121  66.3771103
  12.1926305  43.5537202  65.9905117  13.6382688  43.4989316  66.4366140
   6.7693953  40.0572258  66.7758237   7.5424829  39.5101245  66.6371113
   7.1219351  40.9216508  66.9872698   8.6078995  41.3848641  79.9825136
   8.3168861  42.2894271  79.8671803   9.2435979  41.4265168  80.6969206
   9.5335202  38.7625489  76.5726496  10.1298774  38.5381512  75.8583459
   9.5910174  38.0210235  77.1751944   9.1060230  36.2164924  64.4076687
   9.3585751  35.6946446  63.6460150   8.1684789  36.0531070  64.5103371
  14.1503513  35.2200703  72.2151430  14.9366602  34.8020126  71.8641847
  14.4142218  36.1246795  72.3833079  14.3213591  40.6573553  66.9140087
  13.6859424  40.7308180  67.6260992  13.9910997  41.2467152  66.2359166
  19.5511940  35.1575936  73.1184409  20.2837112  34.5875153  73.3522238
  18.7951296  34.7697536  73.5590914   8.8256519  38.1193030  66.6101062
   8.7092777  37.4437934  67.2782146   8.9358779  37.6325404  65.7933215
  11.1688060  37.5803178  70.3147751  10.8046267  37.0533798  71.0260673
  12.0255176  37.1901647  70.1414237  17.0737361  28.8697510  77.5779017
  16.7420685  29.7392921  77.3540232  16.4782974  28.5533794  78.2573048
  10.8093547  32.6093077  65.3109100  10.9767949  33.4773314  65.6779571
  10.6190716  32.7720359  64.3870389  13.5668880  41.0710056  76.9774930
  13.2669603  41.9735095  76.8690737  13.2219940  40.8042239  77.8296083
   7.0181362  37.5223853  73.0111634   6.0931858  37.3900067  73.2189326
   7.2665775  38.3018072  73.5081577  16.9666024  33.5892596  74.6572367
  16.0582901  33.5208005  74.3631128  16.9153620  34.0664541  75.4854193
  10.7882768  35.0650735  66.2955767  10.6682393  35.5107785  67.1341247
  10.0935356  35.4136052  65.7369305   4.3790173  37.1657126  73.8455424
   4.5082554  37.4191605  74.7594835   3.6987624  37.7584834  73.5260079
   8.5489660  47.8354376  69.9445898   8.4713690  48.7862202  70.0234378
   7.9451304  47.4900249  70.6020824  11.0406890  35.0082242  82.6007265
  10.2640224  35.5676162  82.5910129  11.6797453  35.4939025  83.1222135
  18.8327670  31.7909035  76.4350241  18.1902051  32.0841568  75.7890036
  18.3282599  31.6761955  77.2403438  16.4867834  35.5372208  67.1236101
  17.3985690  35.7699595  66.9483798  15.9777481  36.1209252  66.5611179
   9.2953262  37.8167695  82.1625232  10.0367946  38.3552739  81.8860055
   8.5890248  38.4433984  82.3196783  14.7708602  39.9596836  80.7597393
  15.1791958  39.5179246  80.0152025  14.0485863  39.3849463  81.0131586
  11.1239672  34.8969442  78.1330950  11.9700867  35.3208856  78.2765599
  11.0638309  34.2403067  78.8269513  15.0937416  40.5198026  74.5149682
  14.4646279  40.6843740  73.8125750  14.7063078  40.9339636  75.2860646
  18.9726648  41.4552464  71.8694046  18.2877686  41.8351366  71.3191079
  19.0570498  42.0647791  72.6025994  14.2739117  32.5573811  79.7912124
  14.0300049  33.3115871  79.2546399  14.5499048  32.9359158  80.6259371
  16.2277580  39.1012423  78.4689389  16.4394475  39.7444183  77.7923770
  16.1807328  38.2674740  78.0011319  13.8303809  31.7130244  75.3725961
  12.9688288  32.0111497  75.6642699  13.8566243  31.9300643  74.4406994
  10.6465378  40.2572434  71.7799767  11.1103724  40.5360137  70.9904390
  10.3822176  39.3555879  71.5972858   7.5389459  39.8043916  74.7179530
   8.1090816  40.2331184  74.0797015   8.1297571  39.5226501  75.4163716
   9.5834264  36.3795587  68.5889332  10.2858308  36.8316630  69.0563259
   9.2514893  35.7379406  69.2169225   8.0314626  34.9707343  82.9640542
   7.4013286  35.6523624  83.1975938   7.9250714  34.8590425  82.0193680
   3.3259598  34.6379139  73.8906466   2.5358652  34.8936668  73.4146576
   3.8170846  35.4527477  73.9958506  17.3423408  41.9784379  76.6411747
  18.1640852  41.5764566  76.3594428  17.3385811  41.8752613  77.5927862
   5.2774344  35.0023719  70.8489943   4.4805507  35.1142413  71.3673438
   5.0499936  35.3410371  69.9830833  11.1080011  41.5268422  78.7972457
  11.1724444  41.9888829  79.6330629  10.3990935  40.8965787  78.9254767
   1.6097301  34.8909630  76.3221457   1.8605340  35.7756640  76.5879033
   2.1456850  34.7114231  75.5496548  25.4329401  38.3223127  72.9896718
  24.6793109  37.7530525  72.8340723  25.5676942  38.2885792  73.9367353
  10.8228029  43.1936529  68.6651437  10.6873704  44.0388065  69.0936285
  11.3637841  43.3955807  67.9017371   7.3095369  29.2728109  85.3265793
   6.9162314  28.7194308  86.0013437   8.1261509  29.5838688  85.7172310
   4.2757426  40.7111967  69.2379363   4.7881947  41.5055218  69.3884927
   4.9280139  40.0138258  69.1712964   6.0852311  43.8277724  71.3202116
   6.2618939  44.7495688  71.1323100   6.8809145  43.5136143  71.7496496
  10.2263330  30.6885988  82.9186049  10.9673043  31.2893141  82.8390512
  10.4581252  29.9463626  82.3604092   5.3704668  35.8742356  81.1964279
   5.2558183  34.9727613  81.4971378   4.5149185  36.1206052  80.8449095
  12.4496505  43.8160096  82.7951780  12.0060359  43.0296474  82.4772684
  13.1113719  44.0039246  82.1295670   7.2083626  45.3455898  77.3212458
   7.7591052  45.2172961  76.5489452   6.3695102  45.6450787  76.9707351
  14.5477743  44.0962896  80.8233181  14.5296219  44.9171777  80.3313450
  15.4697663  43.9716971  81.0483322  11.0050798  41.6107025  81.6656689
  11.5379134  40.8495314  81.4355997  10.4764879  41.3180677  82.4080844
  14.1720492  26.7167091  77.1950331  13.8284762  27.6068733  77.1189442
  14.5399455  26.5268749  76.3319916   2.2406343  39.0400622  70.0138933
   3.0781565  39.4497630  69.7972641   2.4184611  38.1000064  69.9839127
  14.1370775  36.7075702  65.7022766  13.6217399  37.4780307  65.9411153
  13.8648084  36.0340839  66.3255828  11.7217886  31.5525403  70.7608004
  10.8659483  31.1632254  70.5813643  12.1344838  31.6317364  69.9007790
  13.2517033  29.0871746  75.1599564  12.7481828  29.0501882  74.3467369
  13.5447640  29.9964489  75.2196221   9.4959919  29.1710476  74.1665746
  10.3612916  28.9753285  73.8071635   9.5637428  28.9420828  75.0935103
  19.1105049  39.4608057  67.6375940  18.3334492  39.1219217  67.1931102
  19.7896530  39.4660680  66.9630905  13.9257078  34.5802794  67.5282547
  13.6207214  34.8948944  68.3792690  14.8787521  34.6584214  67.5709880
  12.3703510  40.7393018  69.1775501  11.8424872  40.0045777  68.8648739
  11.8691013  41.5167694  68.9315470  17.3496356  38.9342038  74.2942548
  16.6920031  39.6241300  74.3822676  18.1536755  39.3238470  74.6376534
   7.1022238  31.4012684  71.5382113   7.6765990  31.1787866  70.8055306
   7.6893220  31.4701379  72.2910714  16.1601815  37.2886411  72.3446489
  16.6733697  37.9216403  72.8468199  16.8103039  36.6887606  71.9789849
   7.4291825  33.4317145  65.5577998   6.5929137  33.7691832  65.8787273
   7.2896595  33.2966125  64.6205135   9.4044906  28.2753933  70.2657182
   8.7509318  27.9602950  69.6413797   9.3625380  27.6529673  70.9917005
  10.5156110  38.5573228  62.1810474   9.6083172  38.3262482  62.3801623
  11.0127142  37.7610847  62.3684456  13.4224189  47.2670735  65.1007160
  12.7485888  47.5702432  65.7092118  13.8090011  48.0699816  64.7512617
  12.6382646  34.7635867  74.5904830  11.7205207  34.9850814  74.4326518
  13.0542790  34.8382177  73.7316537  13.4217694  36.1627282  69.7207510
  14.1689513  36.6748679  69.4114632  13.6909283  35.8411335  70.5811904
  11.6944344  38.6585823  66.7034464  10.7855563  38.3744856  66.8006934
  11.7239428  39.0784902  65.8437771  16.9263611  42.2692412  70.4725632
  16.4725938  41.4283322  70.5290822  16.2957578  42.9053811  70.8100412
  15.8696531  33.1984398  71.7026299  15.1319288  32.6861785  72.0336542
  16.1223304  32.7584780  70.8909576  15.3696551  44.1068909  71.4075450
  15.6619525  44.6673966  70.6887816  15.8795171  44.3997470  72.1628609
  15.9708158  25.9760650  72.2968069  16.2767035  25.1158014  72.0093984
  16.6960763  26.5678271  72.0967063   2.2632514  36.3791337  70.6849667
   2.0656914  35.7860698  69.9600733   1.7079178  36.0743547  71.4025605
  10.2429238  36.2714444  72.8044260  10.2977848  35.3188280  72.7286736
   9.4320440  36.4273883  73.2885558  11.3920432  40.1994567  64.0422543
  10.9539862  39.4830426  63.5828180  12.1330873  40.4270681  63.4807634
   8.1821598  34.8891503  70.5634639   7.3689463  35.1885674  70.9699831
   8.6780592  34.4947192  71.2809121  10.3330176  44.8849260  72.4968903
  10.2906354  45.1110107  71.5677435  11.2492875  44.6512635  72.6454704
  13.7795809  35.3533328  79.3949532  14.1345197  35.5804801  80.2543998
  14.4267941  35.6851705  78.7726788  19.5093546  38.4751764  70.0998861
  19.3711445  38.6653360  69.1720051  19.1529765  39.2371146  70.5566913
   7.6735673  32.4609859  76.1795874   8.3135052  32.3198618  75.4818837
   6.8413203  32.1744372  75.8034476  19.5362926  40.5428291  75.1110133
  19.9699433  40.4503580  75.9593187  20.2494507  40.5185791  74.4730149
   8.4495976  41.7612289  72.2930866   9.2436575  41.2662609  72.0913441
   7.7387669  41.2330152  71.9298572  13.2690821  44.1430385  76.6443234
  13.3227843  44.7121321  77.4120949  12.4005602  44.3132270  76.2797271
   4.7578740  35.9055371  68.3690619   3.8276328  35.8439826  68.5860581
   4.8536212  35.3831324  67.5727260   4.6764289  32.4310184  70.9568860
   4.9371106  33.3455517  70.8478021   5.4981461  31.9634626  71.1065473
   6.1489214  33.8447941  78.1267685   6.8212268  33.6365303  77.4780334
   5.3219001  33.6470027  77.6872917  20.3978476  40.5851991  77.6443018
  20.5914366  41.4897802  77.8902293  20.2979094  40.1259410  78.4781603
  12.0514786  30.4709882  80.1433346  11.4042701  31.1699832  80.0497822
  12.8215802  30.9046026  80.5109594  15.4593584  40.7358734  83.2183899
  15.3079091  40.5069286  82.3013983  15.4498264  41.6929335  83.2315244
  12.2278921  38.3090647  78.2030165  13.1570981  38.4601806  78.0299133
  11.8069951  38.3974668  77.3478812  11.0267252  42.3341311  75.9728703
  10.8878338  41.9660096  76.8454641  10.2381849  42.8488951  75.8012661
  11.6215404  47.4350408  67.3154240  11.7967160  46.9638451  68.1299862
  10.9348192  48.0616174  67.5435500  12.5772468  41.7122914  73.3617541
  12.2422300  41.6723684  74.2575191  12.0776413  41.0467630  72.8887951
   6.5516712  37.1190544  78.8870122   6.4136510  36.3870783  79.4881661
   7.4621635  37.0299444  78.6054310  15.5131659  39.0578948  63.6354601
  14.8960830  38.3325776  63.5387653  15.0448148  39.8188309  63.2921675
   9.1799012  36.8310503  78.3753802   9.8898631  36.1903695  78.3340420
   9.1368320  37.0823398  79.2979982  17.1685791  43.7677857  81.2960381
  17.1098337  43.0837077  80.6290964  17.5705309  44.5096847  80.8441007
   7.8927946  33.8175721  80.1949441   7.3565303  33.3666460  80.8471037
   7.3044655  33.9521630  79.4519905   6.1876490  50.5839770  74.0894100
   6.4273088  51.2158295  74.7673118   5.3445686  50.2327810  74.3759459
   7.3030205  33.2764373  62.7575905   6.4259671  33.1553173  62.3938151
   7.7787958  32.4850451  62.5054793  17.1703198  41.7317441  79.5274361
  16.2829977  41.3943362  79.6500759  17.7401749  41.0000472  79.7643126
   3.6267067  32.9531729  77.2802436   3.5425256  32.3457398  76.5452846
   2.8049774  33.4440747  77.2811932  10.7004352  46.3918893  76.4935604
  10.6274523  47.1973864  77.0054908  10.2581745  46.5910859  75.6683625
  10.4894131  45.6290663  70.0038425   9.7061653  46.1712343  70.0976650
  11.1886876  46.1464643  70.4032666  13.7990781  31.4385292  72.6472631
  14.2959481  30.6855255  72.3273701  13.0277763  31.4749609  72.0815840
  21.6520539  37.1425658  74.2890922  21.6410415  38.0250373  73.9184855
  20.7837918  36.7897209  74.0945459  13.1603035  46.2905727  78.6493762
  13.8731007  46.9253192  78.5769664  12.6693064  46.3869593  77.8333764
  14.8820562  40.1956980  70.2211054  13.9476841  40.3158442  70.0515758
  15.0597230  39.2929446  69.9571064  10.3825750  33.5802675  72.3744315
  10.0123538  33.0273716  73.0625221  10.8784843  32.9760809  71.8219315
  18.2693113  36.0374299  70.7561088  18.7353566  36.8702290  70.6821391
  18.7200614  35.5719280  71.4606347   8.2114949  44.0400170  79.4699333
   8.9124408  44.6736653  79.6228727   7.7410064  44.3814902  78.7094972
  16.3369344  42.3818120  67.7547240  16.6129188  42.2674715  68.6641114
  15.4673843  41.9835605  67.7159413  16.2409776  28.4054886  74.7951990
  15.3272856  28.6359113  74.9634196  16.6702878  28.4893330  75.6466022
  16.0116235  36.5944778  77.2951884  15.3587685  36.8420685  76.6404336
  16.3896615  35.7808916  76.9614361  12.9723408  46.6304471  71.3980054
  13.1545803  45.8126127  71.8607806  13.7956395  46.8472163  70.9604944
  13.3065574  45.5572656  68.6595102  13.8353340  45.0465111  68.0465264
  13.5693794  45.2415186  69.5240635  12.0603808  37.3364589  83.7817921
  11.3844445  37.2358718  84.4520296  12.8831442  37.1803803  84.2453918
   3.8082667  43.5736525  76.4030436   4.3936104  42.8280213  76.5358340
   3.6107505  43.8840482  77.2867100   6.6621322  46.6087773  71.4192878
   5.9931697  47.0933900  70.9356918   6.5234192  46.8556993  72.3336257
  10.8026591  48.6431516  78.0175537  11.3544899  48.8063138  78.7824622
  11.1432784  49.2335954  77.3455561   5.7791084  30.9906666  78.6197421
   5.8432410  31.8521497  78.2074819   5.7158204  30.3780668  77.8869780
   5.2543356  33.0629799  82.2670456   5.8815395  32.6806876  82.8807980
   4.3971275  32.8444001  82.6326148  15.6537465  43.4692774  83.8724191
  16.1977369  44.0822732  83.3779146  15.0724310  44.0272352  84.3891204
   2.0308899  34.8706228  68.1988810   2.3262340  33.9616906  68.1455864
   1.1296935  34.8493967  67.8769813  13.9394978  46.5913492  75.0039219
  13.8146117  45.7903232  74.4950164  14.5974069  47.0859685  74.5153189
   5.5603146  32.9462224  74.1816359   4.8389732  33.5598192  74.0423832
   6.3496402  33.4819989  74.1033005  16.0029886  44.3922512  76.6318769
  15.0560222  44.2727863  76.5597096  16.3512659  43.5045010  76.7145030
   8.3629460  30.2816651  80.4557011   8.8863861  30.5278947  81.2183320
   8.1441793  31.1136686  80.0360148   3.7596741  32.5520325  68.3228136
   3.4309447  31.6717704  68.1403242   4.1136111  32.4967994  69.2104525
  13.0076319  44.1875228  72.8323121  12.8601282  43.2591936  73.0130691
  13.8329813  44.2095319  72.3480196   6.8738564  32.8393295  68.6903613
   7.2134636  33.3679217  67.9682222   7.3210684  33.1773701  69.4662180
  16.6110441  45.0103787  73.9187994  17.5356989  44.8046648  73.7812445
  16.4425745  44.7620188  74.8277335   9.5682005  31.2230346  78.1406681
   9.2278825  30.4238159  78.5427361   8.8621011  31.5232057  77.5683515
  10.2198476  28.3079658  76.5934004  11.0424546  27.8340137  76.4712895
  10.4636540  29.0870142  77.0932691   8.8606711  31.3367917  66.8896906
   9.5815073  31.7149170  66.3860623   8.2372015  32.0556794  66.9931884
  13.0037834  32.0413066  67.8255238  13.2201448  32.9237704  67.5244067
  12.5231901  31.6499279  67.0960880   7.7437055  34.9998779  74.4025983
   7.5981636  35.3139082  75.2950264   7.2662259  35.6183679  73.8496882
   9.6033438  31.9901327  74.4506873   9.5895007  31.0942420  74.1139170
  10.3205866  31.9971991  75.0845159  11.4559569  32.4238667  76.4960000
  11.1977347  33.3455738  76.4944330  10.9244609  32.0269102  77.1860464
  16.4005758  45.5289454  69.2750085  16.5742635  44.9635877  68.5223938
  16.8934649  46.3290349  69.0929575   2.2182717  37.5404123  77.3413644
   1.6736185  38.3163931  77.4733918   3.0962067  37.8874928  77.1832766
   9.0070334  30.8715707  69.7194443   9.1286245  29.9432353  69.9185330
   8.7172376  30.8854393  68.8072758  11.8761524  28.5570618  72.8561162
  11.8983221  28.6209951  71.9013142  12.2929583  27.7175126  73.0501669
  22.2545149  38.2925877  70.8940385  22.6976295  37.5433203  70.4959508
  21.3771659  38.2836014  70.5114117  17.3880930  44.8456219  66.3746984
  18.0831835  45.4662911  66.5934298  17.7304080  43.9951570  66.6499361
   3.0048739  36.6674020  80.2343801   2.2630475  36.8156655  80.8208431
   2.6841483  36.9282285  79.3710550  19.2872353  42.2955924  67.9034314
  19.8123677  42.6343197  67.1783634  19.1994706  41.3602940  67.7197449
  10.9492402  46.2089998  80.0324191  11.2579528  45.9639145  80.9046891
  11.7467884  46.4136636  79.5443061  10.9713014  48.3627908  72.2629568
  10.5318004  47.8704286  72.9562424  11.7221131  47.8200875  72.0221643
   3.4505353  44.5539448  72.2654196   4.2763373  44.2543220  71.8852839
   3.0999405  43.7847071  72.7143984   8.4186886  43.9065917  74.3351869
   7.7966895  43.2436622  74.0354097   9.0891753  43.9327049  73.6525517
   1.6513958  42.4725775  73.2243129   0.8145866  42.0447949  73.0427130
   1.6237603  42.6658218  74.1613920   8.4911414  32.3847705  83.9284375
   8.5399569  33.2609827  83.5462145   9.0333928  31.8425098  83.3556018
  18.9766259  42.9288828  83.2085512  18.1861803  42.9112967  82.6690012
  18.7399614  43.4677122  83.9634549  19.0964134  39.7781294  80.5218241
  19.1462139  39.6131302  81.4633764  18.9878058  38.9108553  80.1316122
   7.9800393  42.4569840  67.8110330   8.1288513  43.1405304  67.1577003
   8.7866836  42.4374930  68.3259786  16.3867897  35.7612222  81.8377548
  17.2877759  35.6218687  81.5461545  16.4615871  35.9266677  82.7775725
  10.7210702  33.1379077  80.6830734   9.8514011  33.4312643  80.4113322
  10.9570182  33.7219522  81.4037998  20.5982331  42.1978236  80.7660262
  20.3067139  42.5608216  81.6023723  19.9854462  41.4845244  80.5873594
  21.7978013  39.7631116  73.2862833  22.6324905  40.2020920  73.4500393
  21.9337142  39.2869769  72.4671078  18.8469519  37.3210850  79.2340320
  19.3223641  37.5138497  78.4259172  17.9235085  37.3770036  78.9883704
   5.7353026  38.4835018  68.8171399   5.4899068  37.5797348  69.0151609
   5.9048940  38.4852168  67.8750877  13.4249736  29.3558694  78.1996154
  13.9431680  30.0919721  77.8742643  13.0704869  29.6622687  79.0342913
   5.0048673  34.2163375  66.3157560   4.3117918  34.2907730  65.6597596
   4.7600425  33.4523719  66.8379077  13.6762330  25.7758977  73.7197051
  13.9564084  25.1082166  74.3457477  14.4612937  25.9688072  73.2071715
  11.4795798  44.9517970  65.2822077  10.9069766  45.5708158  64.8292549
  12.0528592  45.5017332  65.8161999  17.5471188  34.1976611  77.4668626
  18.4988611  34.2974708  77.4880850  17.3774639  33.4054879  77.9766710
  15.5685568  31.2832194  77.6528027  14.9735500  31.5637206  76.9574516
  15.2835264  31.7726095  78.4244768  14.6993058  45.2355121  66.4130659
  15.6323731  45.1700682  66.6163535  14.6116271  46.0711387  65.9545192
  17.3281075  44.5520991  63.3734607  17.2494706  44.2180855  64.2670365
  18.1490742  45.0442759  63.3726079  20.0259266  37.4182730  76.5810926
  19.9935586  36.4798731  76.7670609  20.6359890  37.4966767  75.8476751
  11.8642597  36.2878783  62.6238130  12.8101702  36.1584991  62.6926548
  11.4856842  35.5493445  63.1007558  20.1753755  34.2093774  76.6269209
  19.6592803  33.4252230  76.4399138  21.0593703  33.8812490  76.7915728
  17.8364482  27.9534789  72.5865022  17.6389303  27.6449877  73.4708353
  18.4464187  28.6796428  72.7162951  25.8435816  38.4798737  75.7216962
  26.5739204  38.2184025  76.2824666  25.2342761  37.7427459  75.7619030
  23.9251113  36.6206600  76.3191414  23.1984277  36.4862565  75.7107905
  23.5098400  36.9283428  77.1248132  11.7481289  40.3396529  84.0838787
  12.6684299  40.5175128  84.2778833  11.7130873  39.3952575  83.9318486
  10.0485514  34.2128760  62.5593015   9.1416970  33.9161872  62.6355729
  10.3261495  33.9158578  61.6927301   0.9663454  35.5335123  73.0092061
   0.6466239  34.6800431  72.7166435   0.4196883  35.7483701  73.7650029
   4.7443362  38.2497564  76.7261568   4.9629372  39.1814672  76.7449602
   5.1569136  37.8905538  77.5116372  11.6647580  28.7565649  68.7137256
  10.8548308  28.4112734  69.0892502  12.3531997  28.4473193  69.3024868
  13.5938128  27.8343696  70.3361553  14.1469167  28.2539150  70.9951576
  13.8308214  26.9079444  70.3784509   9.6171227  33.8230770  86.1164317
   9.5167954  34.7725127  86.0476408   9.3992769  33.4949009  85.2440387
   8.8184299  31.0715695  62.7004994   9.6803463  31.3970593  62.9600811
   9.0034643  30.2847191  62.1878060  16.9716935  29.9444221  69.8440217
  16.3915604  30.6029025  69.4618270  16.7052868  29.1221566  69.4327635
  15.4220502  29.3449279  72.0461537  15.9220280  29.4565814  71.2375856
  16.0656110  29.0410332  72.6862346   9.4802497  37.2527909  84.9329378
   8.9969579  38.0528269  85.1393267   9.5663436  37.2635853  83.9796822
   2.7488457  39.0856288  72.8551198   2.7259145  39.1843976  71.9033081
   3.0589094  39.9321439  73.1768364   5.4075835  41.1432443  76.9697812
   6.3619088  41.1116386  76.9027744   5.2088358  40.6823067  77.7848038
   5.9975217  39.7133559  79.5368610   6.8168106  40.2077638  79.5603447
   6.2712025  38.7965527  79.5086177  15.7541813  32.1044312  68.8996565
  14.8667668  32.3893962  68.6816760  16.1695802  31.9438075  68.0523842
  19.1056349  32.1290833  72.6150905  19.8816739  32.6187285  72.8875521
  18.3804484  32.5548887  73.0722774  21.5428908  32.8418452  73.6724845
  22.1373399  32.6014188  72.9618153  21.6155492  32.1225582  74.2998382
   3.7626064  46.6852063  73.9868010   3.6280532  45.9252464  73.4206008
   3.3458126  47.4092963  73.5196799  14.8985027  41.8688986  62.9944585
  15.6020877  42.0738989  63.6102241  14.1747675  42.4365748  63.2593669
  15.7282837  37.6198848  69.1146856  15.6718038  38.0767399  68.2754488
  16.2811179  36.8589532  68.9369698  19.5387643  33.4088579  69.9396975
  19.2824577  33.0085215  70.7705183  18.9140511  34.1232373  69.8147114
  23.8499981  36.1484653  72.4468266  23.2899539  36.2177842  73.2199828
  23.2443484  35.9725637  71.7267763   6.9195190  47.5821380  74.1986453
   6.8027574  48.5266812  74.0965143   6.0987636  47.2794941  74.5872252
  16.8071724  42.3071516  65.0443045  17.6417328  41.8752714  64.8620520
  16.6456067  42.1353529  65.9719940  16.4617616  38.8103629  66.4099385
  16.4066420  38.6447900  65.4687829  15.8363672  39.5179662  66.5661574
   1.2510131  34.0471693  80.2360807   1.8968995  33.5370647  80.7248032
   1.0427282  34.7840375  80.8104232  13.7763523  41.1152541  85.7352947
  14.6454683  41.2893193  85.3739582  13.2970275  41.9346958  85.6128677
   9.7713742  28.3111738  65.9884703   9.7592412  29.2553578  66.1452974
  10.6637164  28.1281883  65.6944164   7.9449704  48.2349642  77.4142381
   8.8476950  48.2673252  77.7308876   7.7187074  47.3050093  77.4288717
   9.7003306  46.9880628  74.0752460   8.7498937  46.9882490  73.9616832
  10.0035792  46.2413363  73.5588494  13.5865861  24.9054514  70.2430640
  12.8198257  24.3513001  70.3887322  13.9976566  24.9776383  71.1044792
   5.5907622  31.1939310  84.3335821   6.4539084  30.8376115  84.5439146
   5.0173033  30.8553205  85.0211225  25.4355999  52.8241167  75.1398222
  26.0734409  52.7047914  74.4361562  25.3176842  53.7722011  75.1986174
  22.2445705  52.7768595  75.0759747  21.9064217  52.6609659  74.1880282
  23.1135474  52.3759760  75.0560753  18.1032521  54.6304071  71.0656638
  17.5397386  54.5394008  70.2972926  17.9884916  53.8103976  71.5459130
  22.7265488  53.9303446  81.0345952  22.7154129  53.5356245  80.1626456
  22.8886128  53.1969519  81.6279724  15.6496953  56.1255263  73.9040858
  16.4418245  55.7846087  73.4887158  15.8893603  56.2350238  74.8243012
  23.6832080  58.2975039  66.3771103  23.0320060  58.8829119  65.9905117
  24.4776443  58.8281234  66.4366140  17.6087707  55.3864176  66.7758237
  18.3818583  54.8393163  66.6371113  17.9613106  56.2508425  66.9872698
  19.4472750  56.7140558  79.9825136  19.1562616  57.6186189  79.8671803
  20.0829734  56.7557086  80.6969206  20.3728956  54.0917407  76.5726496
  20.9692529  53.8673429  75.8583459  20.4303928  53.3502152  77.1751944
  19.9453985  51.5456842  64.4076687  20.1979506  51.0238363  63.6460150
  19.0078544  51.3822988  64.5103371  24.9897268  50.5492620  72.2151430
  25.7760357  50.1312044  71.8641847  25.2535972  51.4538713  72.3833079
  25.1607345  55.9865471  66.9140087  24.5253178  56.0600097  67.6260992
  24.8304751  56.5759070  66.2359166  30.3905695  50.4867854  73.1184409
  31.1230867  49.9167070  73.3522238  29.6345051  50.0989454  73.5590914
  19.6650274  53.4484948  66.6101062  19.5486532  52.7729851  67.2782146
  19.7752534  52.9617322  65.7933215  22.0081815  52.9095095  70.3147751
  21.6440022  52.3825716  71.0260673  22.8648930  52.5193564  70.1414237
  27.9131115  44.1989428  77.5779017  27.5814440  45.0684839  77.3540232
  27.3176729  43.8825712  78.2573048  21.6487302  47.9384995  65.3109100
  21.8161704  48.8065231  65.6779571  21.4584471  48.1012277  64.3870389
  24.4062635  56.4001974  76.9774930  24.1063358  57.3027013  76.8690737
  24.0613694  56.1334157  77.8296083  17.8575116  52.8515771  73.0111634
  16.9325613  52.7191985  73.2189326  18.1059529  53.6309990  73.5081577
  27.8059778  48.9184514  74.6572367  26.8976656  48.8499922  74.3631128
  27.7547374  49.3956459  75.4854193  21.6276522  50.3942652  66.2955767
  21.5076148  50.8399703  67.1341247  20.9329111  50.7427970  65.7369305
  15.2183927  52.4949044  73.8455424  15.3476308  52.7483523  74.7594835
  14.5381379  53.0876752  73.5260079  19.3883415  63.1646294  69.9445898
  19.3107444  64.1154119  70.0234378  18.7845058  62.8192167  70.6020824
  21.8800644  50.3374160  82.6007265  21.1033978  50.8968080  82.5910129
  22.5191207  50.8230943  83.1222135  29.6721425  47.1200952  76.4350241
  29.0295805  47.4133486  75.7890036  29.1676353  47.0053873  77.2403438
  27.3261589  50.8664126  67.1236101  28.2379445  51.0991512  66.9483798
  26.8171236  51.4501170  66.5611179  20.1347017  53.1459613  82.1625232
  20.8761701  53.6844657  81.8860055  19.4284002  53.7725902  82.3196783
  25.6102356  55.2888753  80.7597393  26.0185712  54.8471164  80.0152025
  24.8879618  54.7141381  81.0131586  21.9633426  50.2261360  78.1330950
  22.8094621  50.6500774  78.2765599  21.9032064  49.5694984  78.8269513
  25.9331171  55.8489944  74.5149682  25.3040033  56.0135658  73.8125750
  25.5456833  56.2631554  75.2860646  29.8120403  56.7844382  71.8694046
  29.1271441  57.1643283  71.3191079  29.8964252  57.3939709  72.6025994
  25.1132872  47.8865729  79.7912124  24.8693803  48.6407789  79.2546399
  25.3892802  48.2651076  80.6259371  27.0671334  54.4304341  78.4689389
  27.2788230  55.0736101  77.7923770  27.0201083  53.5966657  78.0011319
  24.6697563  47.0422162  75.3725961  23.8082042  47.3403415  75.6642699
  24.6959998  47.2592560  74.4406994  21.4859133  55.5864352  71.7799767
  21.9497478  55.8652055  70.9904390  21.2215931  54.6847797  71.5972858
  18.3783214  55.1335834  74.7179530  18.9484571  55.5623102  74.0797015
  18.9691326  54.8518418  75.4163716  20.4228019  51.7087504  68.5889332
  21.1252062  52.1608548  69.0563259  20.0908647  51.0671323  69.2169225
  18.8708380  50.2999261  82.9640542  18.2407041  50.9815542  83.1975938
  18.7644468  50.1882343  82.0193680  14.1653353  49.9671057  73.8906466
  13.3752407  50.2228586  73.4146576  14.6564600  50.7819395  73.9958506
  28.1817162  57.3076296  76.6411747  29.0034606  56.9056484  76.3594428
  28.1779565  57.2044530  77.5927862  16.1168098  50.3315636  70.8489943
  15.3199261  50.4434331  71.3673438  15.8893690  50.6702289  69.9830833
  21.9473766  56.8560340  78.7972457  22.0118198  57.3180747  79.6330629
  21.2384690  56.2257705  78.9254767  12.4491056  50.2201548  76.3221457
  12.6999094  51.1048557  76.5879033  12.9850604  50.0406149  75.5496548
  36.2723155  53.6515045  72.9896718  35.5186864  53.0822443  72.8340723
  36.4070697  53.6177709  73.9367353  21.6621783  58.5228447  68.6651437
  21.5267458  59.3679983  69.0936285  22.2031596  58.7247725  67.9017371
  18.1489123  44.6020027  85.3265793  17.7556069  44.0486225  86.0013437
  18.9655263  44.9130605  85.7172310  15.1151181  56.0403885  69.2379363
  15.6275701  56.8347135  69.3884927  15.7673894  55.3430176  69.1712964
  16.9246066  59.1569641  71.3202116  17.1012694  60.0787606  71.1323100
  17.7202899  58.8428061  71.7496496  21.0657084  46.0177906  82.9186049
  21.8066797  46.6185059  82.8390512  21.2975007  45.2755544  82.3604092
  16.2098422  51.2034273  81.1964279  16.0951937  50.3019531  81.4971378
  15.3542940  51.4497970  80.8449095  23.2890260  59.1452014  82.7951780
  22.8454114  58.3588392  82.4772684  23.9507473  59.3331164  82.1295670
  18.0477381  60.6747815  77.3212458  18.5984806  60.5464879  76.5489452
  17.2088857  60.9742704  76.9707351  25.3871498  59.4254814  80.8233181
  25.3689973  60.2463695  80.3313450  26.3091418  59.3008889  81.0483322
  21.8444552  56.9398943  81.6656689  22.3772889  56.1787231  81.4355997
  21.3158633  56.6472595  82.4080844  25.0114247  42.0459009  77.1950331
  24.6678516  42.9360651  77.1189442  25.3793210  41.8560667  76.3319916
  13.0800098  54.3692539  70.0138933  13.9175320  54.7789548  69.7972641
  13.2578365  53.4291982  69.9839127  24.9764530  52.0367620  65.7022766
  24.4611153  52.8072225  65.9411153  24.7041838  51.3632756  66.3255828
  22.5611641  46.8817321  70.7608004  21.7053237  46.4924171  70.5813643
  22.9738593  46.9609282  69.9007790  24.0910787  44.4163664  75.1599564
  23.5875583  44.3793799  74.3467369  24.3841394  45.3256407  75.2196221
  20.3353673  44.5002394  74.1665746  21.2006670  44.3045203  73.8071635
  20.4031182  44.2712746  75.0935103  29.9498804  54.7899975  67.6375940
  29.1728247  54.4511134  67.1931102  30.6290285  54.7952598  66.9630905
  24.7650833  49.9094712  67.5282547  24.4600968  50.2240861  68.3792690
  25.7181275  49.9876132  67.5709880  23.2097265  56.0684935  69.1775501
  22.6818626  55.3337695  68.8648739  22.7084767  56.8459612  68.9315470
  28.1890111  54.2633956  74.2942548  27.5313785  54.9533217  74.3822676
  28.9930510  54.6530388  74.6376534  17.9415992  46.7304602  71.5382113
  18.5159744  46.5079783  70.8055306  18.5286975  46.7993296  72.2910714
  26.9995570  52.6178329  72.3446489  27.5127451  53.2508321  72.8468199
  27.6496793  52.0179524  71.9789849  18.2685579  48.7609063  65.5577998
  17.4322892  49.0983749  65.8787273  18.1290349  48.6258043  64.6205135
  20.2438660  43.6045851  70.2657182  19.5903072  43.2894868  69.6413797
  20.2019134  42.9821591  70.9917005  21.3549865  53.8865146  62.1810474
  20.4476927  53.6554399  62.3801623  21.8520897  53.0902765  62.3684456
  24.2617944  62.5962653  65.1007160  23.5879643  62.8994350  65.7092118
  24.6483766  63.3991733  64.7512617  23.4776400  50.0927784  74.5904830
  22.5598962  50.3142731  74.4326518  23.8936544  50.1674095  73.7316537
  24.2611448  51.4919200  69.7207510  25.0083267  52.0040597  69.4114632
  24.5303038  51.1703253  70.5811904  22.5338098  53.9877741  66.7034464
  21.6249318  53.7036773  66.8006934  22.5633182  54.4076819  65.8437771
  27.7657366  57.5984330  70.4725632  27.3119693  56.7575240  70.5290822
  27.1351332  58.2345728  70.8100412  26.7090285  48.5276316  71.7026299
  25.9713042  48.0153702  72.0336542  26.9617059  48.0876698  70.8909576
  26.2090305  59.4360827  71.4075450  26.5013279  59.9965884  70.6887816
  26.7188926  59.7289388  72.1628609  26.8101913  41.3052568  72.2968069
  27.1160789  40.4449932  72.0093984  27.5354517  41.8970188  72.0967063
  13.1026269  51.7083255  70.6849667  12.9050669  51.1152615  69.9600733
  12.5472933  51.4035465  71.4025605  21.0822992  51.6006361  72.8044260
  21.1371602  50.6480198  72.7286736  20.2714194  51.7565800  73.2885558
  22.2314186  55.5286484  64.0422543  21.7933616  54.8122343  63.5828180
  22.9724627  55.7562599  63.4807634  19.0215352  50.2183421  70.5634639
  18.2083218  50.5177592  70.9699831  19.5174346  49.8239110  71.2809121
  21.1723930  60.2141178  72.4968903  21.1300109  60.4402024  71.5677435
  22.0886629  59.9804552  72.6454704  24.6189564  50.6825245  79.3949532
  24.9738952  50.9096719  80.2543998  25.2661695  51.0143622  78.7726788
  30.3487301  53.8043681  70.0998861  30.2105200  53.9945277  69.1720051
  29.9923520  54.5663064  70.5566913  18.5129427  47.7901776  76.1795874
  19.1528806  47.6490536  75.4818837  17.6806958  47.5036290  75.8034476
  30.3756681  55.8720208  75.1110133  30.8093187  55.7795497  75.9593187
  31.0888261  55.8477709  74.4730149  19.2889731  57.0904207  72.2930866
  20.0830329  56.5954527  72.0913441  18.5781423  56.5622070  71.9298572
  24.1084575  59.4722302  76.6443234  24.1621598  60.0413239  77.4120949
  23.2399357  59.6424187  76.2797271  15.5972494  51.2347289  68.3690619
  14.6670083  51.1731744  68.5860581  15.6929966  50.7123241  67.5727260
  15.5158043  47.7602101  70.9568860  15.7764861  48.6747435  70.8478021
  16.3375216  47.2926544  71.1065473  16.9882969  49.1739859  78.1267685
  17.6606022  48.9657221  77.4780334  16.1612755  48.9761945  77.6872917
  31.2372230  55.9143909  77.6443018  31.4308120  56.8189719  77.8902293
  31.1372848  55.4551328  78.4781603  22.8908541  45.8001800  80.1433346
  22.2436456  46.4991749  80.0497822  23.6609556  46.2337943  80.5109594
  26.2987339  56.0650652  83.2183899  26.1472845  55.8361203  82.3013983
  26.2892018  57.0221253  83.2315244  23.0672675  53.6382564  78.2030165
  23.9964735  53.7893724  78.0299133  22.6463705  53.7266585  77.3478812
  21.8661007  57.6633229  75.9728703  21.7272093  57.2952013  76.8454641
  21.0775603  58.1780868  75.8012661  22.4609159  62.7642325  67.3154240
  22.6360915  62.2930369  68.1299862  21.7741947  63.3908092  67.5435500
  23.4166222  57.0414832  73.3617541  23.0816055  57.0015602  74.2575191
  22.9170168  56.3759548  72.8887951  17.3910466  52.4482462  78.8870122
  17.2530264  51.7162700  79.4881661  18.3015390  52.3591362  78.6054310
  26.3525414  54.3870866  63.6354601  25.7354584  53.6617694  63.5387653
  25.8841902  55.1480226  63.2921675  20.0192767  52.1602421  78.3753802
  20.7292385  51.5195613  78.3340420  19.9762075  52.4115316  79.2979982
  28.0079545  59.0969774  81.2960381  27.9492092  58.4128994  80.6290964
  28.4099064  59.8388764  80.8441007  18.7321701  49.1467639  80.1949441
  18.1959058  48.6958377  80.8471037  18.1438409  49.2813548  79.4519905
  17.0270244  65.9131688  74.0894100  17.2666842  66.5450212  74.7673118
  16.1839441  65.5619728  74.3759459  18.1423960  48.6056290  62.7575905
  17.2653426  48.4845091  62.3938151  18.6181713  47.8142369  62.5054793
  28.0096953  57.0609358  79.5274361  27.1223731  56.7235280  79.6500759
  28.5795504  56.3292389  79.7643126   9.6626100  53.3933450  72.8517412
  10.3497140  53.0795180  72.2638427   9.5074228  54.2974815  72.5784663
  14.4660822  48.2823647  77.2802436  14.3819011  47.6749316  76.5452846
  13.6443528  48.7732665  77.2811932  21.5398106  61.7210811  76.4935604
  21.4668278  62.5265782  77.0054908  21.0975499  61.9202776  75.6683625
  21.3287886  60.9582581  70.0038425  20.5455408  61.5004261  70.0976650
  22.0280631  61.4756560  70.4032666  24.6384536  46.7677210  72.6472631
  25.1353235  46.0147172  72.3273701  23.8671517  46.8041527  72.0815840
  32.4914293  52.4717576  74.2890922  32.4804169  53.3542291  73.9184855
  31.6231673  52.1189126  74.0945459  23.9996790  61.6197645  78.6493762
  24.7124762  62.2545109  78.5769664  23.5086818  61.7161511  77.8333764
  25.7214317  55.5248897  70.2211054  24.7870595  55.6450360  70.0515758
  25.8990985  54.6221364  69.9571064  21.2219505  48.9094593  72.3744315
  20.8517292  48.3565633  73.0625221  21.7178597  48.3052727  71.8219315
  29.1086868  51.3666217  70.7561088  29.5747320  52.1994208  70.6821391
  29.5594368  50.9011198  71.4606347  19.0508703  59.3692088  79.4699333
  19.7518163  60.0028571  79.6228727  18.5803818  59.7106820  78.7094972
  27.1763099  57.7110038  67.7547240  27.4522943  57.5966632  68.6641114
  26.3067598  57.3127523  67.7159413  27.0803531  43.7346804  74.7951990
  26.1666610  43.9651030  74.9634196  27.5096632  43.8185248  75.6466022
  26.8509989  51.9236696  77.2951884  26.1981439  52.1712603  76.6404336
  27.2290369  51.1100834  76.9614361  23.8117163  61.9596389  71.3980054
  23.9939558  61.1418045  71.8607806  24.6350149  62.1764081  70.9604944
  24.1459328  60.8864574  68.6595102  24.6747095  60.3757028  68.0465264
  24.4087548  60.5707104  69.5240635  22.8997562  52.6656507  83.7817921
  22.2238199  52.5650636  84.4520296  23.7225196  52.5095720  84.2453918
  14.6476421  58.9028443  76.4030436  15.2329858  58.1572131  76.5358340
  14.4501260  59.2132400  77.2867100  17.5015076  61.9379691  71.4192878
  16.8325452  62.4225818  70.9356918  17.3627946  62.1848911  72.3336257
   9.2394076  51.4734043  75.1234879   9.2778175  50.9397634  75.9171997
   8.7334369  50.9469249  74.5045856  21.6420345  63.9723434  78.0175537
  22.1938653  64.1355056  78.7824622  21.9826538  64.5627872  77.3455561
  16.6184838  46.3198584  78.6197421  16.6826165  47.1813415  78.2074819
  16.5551958  45.7072585  77.8869780  16.0937111  48.3921716  82.2670456
  16.7209150  48.0098794  82.8807980  15.2365030  48.1735918  82.6326148
  26.4931219  58.7984692  83.8724191  27.0371123  59.4114650  83.3779146
  25.9118064  59.3564270  84.3891204  12.8702654  50.1998145  68.1988810
  13.1656095  49.2908824  68.1455864  11.9690689  50.1785885  67.8769813
  24.7788732  61.9205410  75.0039219  24.6539872  61.1195149  74.4950164
  25.4367823  62.4151603  74.5153189  16.3996901  48.2754142  74.1816359
  15.6783486  48.8890110  74.0423832  17.1890156  48.8111907  74.1033005
  26.8423641  59.7214430  76.6318769  25.8953976  59.6019781  76.5597096
  27.1906414  58.8336928  76.7145030  19.2023214  45.6108569  80.4557011
  19.7257616  45.8570865  81.2183320  18.9835547  46.4428603  80.0360148
  14.5990495  47.8812243  68.3228136  14.2703201  47.0009622  68.1403242
  14.9529866  47.8259912  69.2104525  23.8470074  59.5167146  72.8323121
  23.6995036  58.5883853  73.0130691  24.6723567  59.5387237  72.3480196
  17.7132318  48.1685213  68.6903613  18.0528391  48.6971134  67.9682222
  18.1604439  48.5065619  69.4662180  27.4504196  60.3395705  73.9187994
  28.3750743  60.1338566  73.7812445  27.2819499  60.0912106  74.8277335
  20.4075759  46.5522264  78.1406681  20.0672579  45.7530077  78.5427361
  19.7014765  46.8523975  77.5683515  21.0592231  43.6371576  76.5934004
  21.8818300  43.1632054  76.4712895  21.3030294  44.4162060  77.0932691
  19.7000465  46.6659835  66.8896906  20.4208828  47.0441087  66.3860623
  19.0765770  47.3848711  66.9931884  23.8431588  47.3704983  67.8255238
  24.0595203  48.2529621  67.5244067  23.3625655  46.9791197  67.0960880
  18.5830810  50.3290697  74.4025983  18.4375390  50.6431000  75.2950264
  18.1056013  50.9475597  73.8496882  20.4427193  47.3193245  74.4506873
  20.4288761  46.4234338  74.1139170  21.1599621  47.3263908  75.0845159
  22.2953323  47.7530585  76.4960000  22.0371101  48.6747656  76.4944330
  21.7638364  47.3561019  77.1860464  27.2399512  60.8581372  69.2750085
  27.4136390  60.2927795  68.5223938  27.7328403  61.6582267  69.0929575
  13.0576472  52.8696041  77.3413644  12.5129940  53.6455849  77.4733918
  13.9355822  53.2166846  77.1832766  19.8464088  46.2007625  69.7194443
  19.9680000  45.2724271  69.9185330  19.5566131  46.2146311  68.8072758
  22.7155279  43.8862535  72.8561162  22.7376976  43.9501869  71.9013142
  23.1323338  43.0467044  73.0501669  33.0938903  53.6217795  70.8940385
  33.5370049  52.8725120  70.4959508  32.2165413  53.6127931  70.5114117
  28.2274685  60.1748136  66.3746984  28.9225589  60.7954829  66.5934298
  28.5697835  59.3243488  66.6499361  13.8442494  51.9965937  80.2343801
  13.1024230  52.1448573  80.8208431  13.5235238  52.2574203  79.3710550
  30.1266108  57.6247842  67.9034314  30.6517432  57.9635115  67.1783634
  30.0388460  56.6894857  67.7197449  21.7886156  61.5381916  80.0324191
  22.0973283  61.2931062  80.9046891  22.5861638  61.7428554  79.5443061
  21.8106768  63.6919825  72.2629568  21.3711759  63.1996204  72.9562424
  22.5614885  63.1492793  72.0221643  14.2899107  59.8831366  72.2654196
  15.1157127  59.5835138  71.8852839  13.9393159  59.1138989  72.7143984
  19.2580641  59.2357834  74.3351869  18.6360650  58.5728539  74.0354097
  19.9285507  59.2618966  73.6525517  12.4907712  57.8017693  73.2243129
  11.6539621  57.3739867  73.0427130  12.4631358  57.9950136  74.1613920
  19.3305168  47.7139622  83.9284375  19.3793323  48.5901745  83.5462145
  19.8727682  47.1717015  83.3556018  29.8160014  58.2580746  83.2085512
  29.0255557  58.2404884  82.6690012  29.5793368  58.7969039  83.9634549
  29.9357889  55.1073212  80.5218241  29.9855894  54.9423219  81.4633764
  29.8271812  54.2400471  80.1316122  18.8194147  57.7861758  67.8110330
  18.9682268  58.4697222  67.1577003  19.6260591  57.7666848  68.3259786
  27.2261651  51.0904140  81.8377548  28.1271514  50.9510605  81.5461545
  27.3009626  51.2558595  82.7775725  21.5604456  48.4670995  80.6830734
  20.6907766  48.7604561  80.4113322  21.7963937  49.0511440  81.4037998
  31.4376086  57.5270153  80.7660262  31.1460894  57.8900134  81.6023723
  30.8248217  56.8137162  80.5873594  32.6371768  55.0923033  73.2862833
  33.4718659  55.5312837  73.4500393  32.7730897  54.6161686  72.4671078
  29.6863274  52.6502768  79.2340320  30.1617395  52.8430414  78.4259172
  28.7628839  52.7061954  78.9883704  16.5746780  53.8126935  68.8171399
  16.3292822  52.9089265  69.0151609  16.7442695  53.8144086  67.8750877
  24.2643490  44.6850612  78.1996154  24.7825434  45.4211639  77.8742643
  23.9098623  44.9914605  79.0342913  15.8442428  49.5455293  66.3157560
  15.1511673  49.6199648  65.6597596  15.5994180  48.7815637  66.8379077
  24.5156084  41.1050894  73.7197051  24.7957838  40.4374083  74.3457477
  25.3006691  41.2979990  73.2071715  22.3189553  60.2809888  65.2822077
  21.7463520  60.9000075  64.8292549  22.8922347  60.8309250  65.8161999
  28.3864943  49.5268528  77.4668626  29.3382366  49.6266626  77.4880850
  28.2168393  48.7346797  77.9766710  26.4079322  46.6124111  77.6528027
  25.8129254  46.8929124  76.9574516  26.1229019  47.1018012  78.4244768
  25.5386813  60.5647038  66.4130659  26.4717486  60.4992600  66.6163535
  25.4510026  61.4003305  65.9545192  28.1674829  59.8812909  63.3734607
  28.0888461  59.5472772  64.2670365  28.9884496  60.3734677  63.3726079
  30.8653021  52.7474648  76.5810926  30.8329341  51.8090649  76.7670609
  31.4753644  52.8258685  75.8476751  22.7036351  51.6170701  62.6238130
  23.6495456  51.4876909  62.6926548  22.3250596  50.8785363  63.1007558
  31.0147509  49.5385691  76.6269209  30.4986558  48.7544148  76.4399138
  31.8987458  49.2104408  76.7915728  28.6758236  43.2826707  72.5865022
  28.4783057  42.9741795  73.4708353  29.2857942  44.0088346  72.7162951
  36.6829570  53.8090655  75.7216962  37.4132959  53.5475943  76.2824666
  36.0736516  53.0719377  75.7619030  34.7644868  51.9498517  76.3191414
  34.0378031  51.8154482  75.7107905  34.3492154  52.2575346  77.1248132
  22.5875044  55.6688447  84.0838787  23.5078053  55.8467046  84.2778833
  22.5524627  54.7244492  83.9318486  20.8879269  49.5420677  62.5593015
  19.9810724  49.2453790  62.6355729  21.1655250  49.2450495  61.6927301
  11.8057209  50.8627041  73.0092061  11.4859993  50.0092349  72.7166435
  11.2590637  51.0775619  73.7650029  15.5837117  53.5789482  76.7261568
  15.8023126  54.5106589  76.7449602  15.9962890  53.2197456  77.5116372
  22.5041334  44.0857567  68.7137256  21.6942063  43.7404652  69.0892502
  23.1925751  43.7765111  69.3024868  24.4331883  43.1635614  70.3361553
  24.9862921  43.5831067  70.9951576  24.6701969  42.2371362  70.3784509
  20.4564982  49.1522687  86.1164317  20.3561709  50.1017044  86.0476408
  20.2386524  48.8240926  85.2440387  19.6578053  46.4007612  62.7004994
  20.5197217  46.7262511  62.9600811  19.8428397  45.6139108  62.1878060
  11.6745469  54.4829952  74.9785183  10.9808940  54.0683905  74.4655137
  12.4218460  54.5250489  74.3818602  27.8110690  45.2736139  69.8440217
  27.2309359  45.9320943  69.4618270  27.5446622  44.4513484  69.4327635
  26.2614256  44.6741197  72.0461537  26.7614034  44.7857731  71.2375856
  26.9049864  44.3702249  72.6862346  20.3196252  52.5819826  84.9329378
  19.8363334  53.3820186  85.1393267  20.4057191  52.5927771  83.9796822
  13.5882212  54.4148206  72.8551198  13.5652900  54.5135893  71.9033081
  13.8982848  55.2613357  73.1768364  16.2469589  56.4724361  76.9697812
  17.2012843  56.4408303  76.9027744  16.0482113  56.0114985  77.7848038
  16.8368972  55.0425477  79.5368610  17.6561861  55.5369556  79.5603447
  17.1105779  54.1257445  79.5086177  26.5935568  47.4336229  68.8996565
  25.7061423  47.7185880  68.6816760  27.0089557  47.2729993  68.0523842
  29.9450104  47.4582750  72.6150905  30.7210494  47.9479203  72.8875521
  29.2198238  47.8840805  73.0722774  32.3822662  48.1710370  73.6724845
  32.9767153  47.9306105  72.9618153  32.4549246  47.4517500  74.2998382
  14.6019818  62.0143980  73.9868010  14.4674286  61.2544381  73.4206008
  14.1851880  62.7384880  73.5196799  25.7378781  57.1980904  62.9944585
  26.4414631  57.4030906  63.6102241  25.0141430  57.7657666  63.2593669
  26.5676591  52.9490765  69.1146856  26.5111793  53.4059317  68.2754488
  27.1204934  52.1881450  68.9369698  30.3781397  48.7380497  69.9396975
  30.1218332  48.3377133  70.7705183  29.7534265  49.4524291  69.8147114
  34.6893735  51.4776570  72.4468266  34.1293293  51.5469760  73.2199828
  34.0837239  51.3017555  71.7267763  17.7588944  62.9113297  74.1986453
  17.6421328  63.8558730  74.0965143  16.9381390  62.6086859  74.5872252
  27.6465479  57.6363433  65.0443045  28.4811083  57.2044632  64.8620520
  27.4849822  57.4645447  65.9719940  27.3011371  54.1395547  66.4099385
  27.2460175  53.9739818  65.4687829  26.6757426  54.8471579  66.5661574
  12.0903886  49.3763611  80.2360807  12.7362749  48.8662565  80.7248032
  11.8821037  50.1132293  80.8104232  24.6157278  56.4444458  85.7352947
  25.4848438  56.6185111  85.3739582  24.1364029  57.2638875  85.6128677
  20.6107496  43.6403656  65.9884703  20.5986166  44.5845495  66.1452974
  21.5030918  43.4573801  65.6944164  18.7843458  63.5641559  77.4142381
  19.6870705  63.5965170  77.7308876  18.5580828  62.6342010  77.4288717
  20.5397060  62.3172546  74.0752460  19.5892691  62.3174408  73.9616832
  20.8429546  61.5705280  73.5588494  24.4259616  40.2346432  70.2430640
  23.6592012  39.6804919  70.3887322  24.8370321  40.3068301  71.1044792
  16.4301377  46.5231228  84.3335821  17.2932838  46.1668033  84.5439146
  15.8566787  46.1845123  85.0211225  36.2749754  68.1533084  75.1398222
  36.9128164  68.0339832  74.4361562  36.1570597  69.1013928  75.1986174
  33.0839460  68.1060512  75.0759747  32.7457971  67.9901577  74.1880282
  33.9529228  67.7051678  75.0560753  28.9426276  69.9595989  71.0656638
  28.3791141  69.8685926  70.2972926  28.8278671  69.1395893  71.5459130
  33.5659243  69.2595364  81.0345952  33.5547884  68.8648162  80.1626456
  33.7279882  68.5261437  81.6279724  26.4890708  71.4547180  73.9040858
  27.2812000  71.1138005  73.4887158  26.7287358  71.5642155  74.8243012
  34.5225834  73.6266957  66.3771103  33.8713814  74.2121037  65.9905117
  35.3170197  74.1573151  66.4366140  28.4481462  70.7156094  66.7758237
  29.2212338  70.1685081  66.6371113  28.8006860  71.5800343  66.9872698
  30.2866504  72.0432476  79.9825136  29.9956370  72.9478107  79.8671803
  30.9223488  72.0849004  80.6969206  31.2122711  69.4209324  76.5726496
  31.8086283  69.1965347  75.8583459  31.2697682  68.6794070  77.1751944
  30.7847739  66.8748760  64.4076687  31.0373260  66.3530281  63.6460150
  29.8472298  66.7114905  64.5103371  36.0001100  71.3157388  66.9140087
  35.3646933  71.3892015  67.6260992  35.6698506  71.9050987  66.2359166
  30.5044028  68.7776866  66.6101062  30.3880286  68.1021769  67.2782146
  30.6146288  68.2909240  65.7933215  32.8475569  68.2387013  70.3147751
  32.4833776  67.7117634  71.0260673  33.7042685  67.8485482  70.1414237
  38.7524870  59.5281345  77.5779017  38.4208194  60.3976756  77.3540232
  38.1570483  59.2117629  78.2573048  32.4881056  63.2676913  65.3109100
  32.6555458  64.1357149  65.6779571  32.2978225  63.4304194  64.3870389
  35.2456389  71.7293891  76.9774930  34.9457112  72.6318930  76.8690737
  34.9007449  71.4626075  77.8296083  28.6968871  68.1807688  73.0111634
  27.7719367  68.0483902  73.2189326  28.9453284  68.9601908  73.5081577
  38.6453533  64.2476432  74.6572367  37.7370410  64.1791840  74.3631128
  38.5941129  64.7248377  75.4854193  32.4670277  65.7234570  66.2955767
  32.3469902  66.1691621  67.1341247  31.7722865  66.0719888  65.7369305
  26.0577682  67.8240962  73.8455424  26.1870063  68.0775441  74.7594835
  25.3775133  68.4168670  73.5260079  30.2277169  78.4938212  69.9445898
  30.1501199  79.4446037  70.0234378  29.6238813  78.1484084  70.6020824
  32.7194399  65.6666077  82.6007265  31.9427733  66.2259997  82.5910129
  33.3584962  66.1522860  83.1222135  40.5115179  62.4492870  76.4350241
  39.8689560  62.7425403  75.7890036  40.0070108  62.3345790  77.2403438
  30.9740771  68.4751531  82.1625232  31.7155455  69.0136575  81.8860055
  30.2677757  69.1017819  82.3196783  36.4496111  70.6180671  80.7597393
  36.8579467  70.1763082  80.0152025  35.7273372  70.0433299  81.0131586
  32.8027181  65.5553278  78.1330950  33.6488376  65.9792691  78.2765599
  32.7425818  64.8986902  78.8269513  36.7724925  71.1781862  74.5149682
  36.1433788  71.3427576  73.8125750  36.3850587  71.5923471  75.2860646
  40.6514157  72.1136300  71.8694046  39.9665195  72.4935201  71.3191079
  40.7358007  72.7231626  72.6025994  35.9526626  63.2157646  79.7912124
  35.7087558  63.9699707  79.2546399  36.2286557  63.5942994  80.6259371
  37.9065089  69.7596259  78.4689389  38.1181984  70.4028018  77.7923770
  37.8594837  68.9258575  78.0011319  35.5091318  62.3714079  75.3725961
  34.6475797  62.6695333  75.6642699  35.5353752  62.5884478  74.4406994
  32.3252887  70.9156270  71.7799767  32.7891233  71.1943973  70.9904390
  32.0609685  70.0139714  71.5972858  29.2176968  70.4627751  74.7179530
  29.7878325  70.8915020  74.0797015  29.8085080  70.1810336  75.4163716
  31.2621773  67.0379422  68.5889332  31.9645817  67.4900466  69.0563259
  30.9302402  66.3963241  69.2169225  29.7102135  65.6291179  82.9640542
  29.0800795  66.3107460  83.1975938  29.6038223  65.5174260  82.0193680
  25.0047107  65.2962975  73.8906466  24.2146161  65.5520503  73.4146576
  25.4958355  66.1111313  73.9958506  39.0210917  72.6368214  76.6411747
  39.8428361  72.2348401  76.3594428  39.0173320  72.5336448  77.5927862
  26.9561853  65.6607554  70.8489943  26.1593016  65.7726248  71.3673438
  26.7287445  65.9994206  69.9830833  32.7867520  72.1852257  78.7972457
  32.8511953  72.6472665  79.6330629  32.0778444  71.5549622  78.9254767
  23.2884810  65.5493465  76.3221457  23.5392849  66.4340475  76.5879033
  23.8244359  65.3698067  75.5496548  32.5015538  73.8520365  68.6651437
  32.3661213  74.6971900  69.0936285  33.0425350  74.0539642  67.9017371
  28.9882878  59.9311945  85.3265793  28.5949823  59.3778143  86.0013437
  29.8049018  60.2422523  85.7172310  25.9544935  71.3695803  69.2379363
  26.4669456  72.1639053  69.3884927  26.6067648  70.6722093  69.1712964
  27.7639820  74.4861559  71.3202116  27.9406448  75.4079524  71.1323100
  28.5596654  74.1719978  71.7496496  31.9050839  61.3469824  82.9186049
  32.6460552  61.9476977  82.8390512  32.1368761  60.6047461  82.3604092
  27.0492177  66.5326191  81.1964279  26.9345692  65.6311448  81.4971378
  26.1936694  66.7789888  80.8449095  34.1284014  74.4743931  82.7951780
  33.6847868  73.6880310  82.4772684  34.7901228  74.6623082  82.1295670
  28.8871135  76.0039733  77.3212458  29.4378561  75.8756796  76.5489452
  28.0482611  76.3034622  76.9707351  36.2265252  74.7546731  80.8233181
  36.2083728  75.5755612  80.3313450  37.1485172  74.6300806  81.0483322
  32.6838307  72.2690861  81.6656689  33.2166643  71.5079149  81.4355997
  32.1552388  71.9764512  82.4080844  35.8508001  57.3750927  77.1950331
  35.5072271  58.2652568  77.1189442  36.2186964  57.1852584  76.3319916
  23.9193852  69.6984457  70.0138933  24.7569074  70.1081465  69.7972641
  24.0972120  68.7583899  69.9839127  35.8158284  67.3659538  65.7022766
  35.3004908  68.1364142  65.9411153  35.5435593  66.6924674  66.3255828
  33.4005395  62.2109239  70.7608004  32.5446992  61.8216089  70.5813643
  33.8132347  62.2901199  69.9007790  34.9304542  59.7455582  75.1599564
  34.4269337  59.7085717  74.3467369  35.2235149  60.6548325  75.2196221
  31.1747428  59.8294312  74.1665746  32.0400425  59.6337120  73.8071635
  31.2424937  59.6004663  75.0935103  34.0491019  71.3976853  69.1775501
  33.5212381  70.6629613  68.8648739  33.5478522  72.1751530  68.9315470
  28.7809747  62.0596519  71.5382113  29.3553499  61.8371701  70.8055306
  29.3680729  62.1285214  72.2910714  29.1079334  64.0900980  65.5577998
  28.2716646  64.4275667  65.8787273  28.9684104  63.9549960  64.6205135
  31.0832415  58.9337768  70.2657182  30.4296827  58.6186786  69.6413797
  31.0412889  58.3113509  70.9917005  32.1943619  69.2157063  62.1810474
  31.2870681  68.9846317  62.3801623  32.6914651  68.4194683  62.3684456
  35.1011698  77.9254571  65.1007160  34.4273397  78.2286267  65.7092118
  35.4877520  78.7283651  64.7512617  34.3170155  65.4219702  74.5904830
  33.3992716  65.6434649  74.4326518  34.7330299  65.4966012  73.7316537
  33.3731853  69.3169658  66.7034464  32.4643072  69.0328691  66.8006934
  33.4026937  69.7368737  65.8437771  38.6051120  72.9276248  70.4725632
  38.1513447  72.0867158  70.5290822  37.9745087  73.5637646  70.8100412
  37.0484059  74.7652744  71.4075450  37.3407034  75.3257802  70.6887816
  37.5582680  75.0581305  72.1628609  23.9420023  67.0375172  70.6849667
  23.7444423  66.4444533  69.9600733  23.3866687  66.7327383  71.4025605
  31.9216747  66.9298279  72.8044260  31.9765357  65.9772115  72.7286736
  31.1107949  67.0857718  73.2885558  33.0707941  70.8578402  64.0422543
  32.6327371  70.1414261  63.5828180  33.8118382  71.0854517  63.4807634
  29.8609107  65.5475339  70.5634639  29.0476972  65.8469509  70.9699831
  30.3568101  65.1531027  71.2809121  32.0117685  75.5433096  72.4968903
  31.9693863  75.7693942  71.5677435  32.9280384  75.3096470  72.6454704
  35.4583318  66.0117163  79.3949532  35.8132706  66.2388636  80.2543998
  36.1055450  66.3435540  78.7726788  29.3523182  63.1193694  76.1795874
  29.9922561  62.9782453  75.4818837  28.5200712  62.8328208  75.8034476
  41.2150435  71.2012126  75.1110133  41.6486942  71.1087415  75.9593187
  41.9282016  71.1769626  74.4730149  30.1283485  72.4196125  72.2930866
  30.9224084  71.9246445  72.0913441  29.4175178  71.8913988  71.9298572
  34.9478330  74.8014220  76.6443234  35.0015352  75.3705156  77.4120949
  34.0793111  74.9716105  76.2797271  26.4366249  66.5639206  68.3690619
  25.5063837  66.5023662  68.5860581  26.5323721  66.0415159  67.5727260
  26.3551798  63.0894019  70.9568860  26.6158615  64.0039352  70.8478021
  27.1768970  62.6218462  71.1065473  27.8276723  64.5031776  78.1267685
  28.4999777  64.2949138  77.4780334  27.0006510  64.3053862  77.6872917
  42.0765985  71.2435827  77.6443018  42.2701875  72.1481637  77.8902293
  41.9766603  70.7843246  78.4781603  33.7302295  61.1293717  80.1433346
  33.0830210  61.8283667  80.0497822  34.5003311  61.5629861  80.5109594
  37.1381093  71.3942569  83.2183899  36.9866600  71.1653121  82.3013983
  37.1285773  72.3513171  83.2315244  33.9066430  68.9674482  78.2030165
  34.8358490  69.1185642  78.0299133  33.4857460  69.0558503  77.3478812
  32.7054761  72.9925147  75.9728703  32.5665847  72.6243931  76.8454641
  31.9169358  73.5072786  75.8012661  33.3002913  78.0934243  67.3154240
  33.4754669  77.6222286  68.1299862  32.6135701  78.7200009  67.5435500
  34.2559977  72.3706749  73.3617541  33.9209809  72.3307519  74.2575191
  33.7563922  71.7051465  72.8887951  28.2304221  67.7774379  78.8870122
  28.0924018  67.0454618  79.4881661  29.1409144  67.6883279  78.6054310
  37.1919168  69.7162784  63.6354601  36.5748339  68.9909612  63.5387653
  36.7235657  70.4772144  63.2921675  30.8586521  67.4894339  78.3753802
  31.5686140  66.8487531  78.3340420  30.8155829  67.7407233  79.2979982
  38.8473300  74.4261692  81.2960381  38.7885846  73.7420912  80.6290964
  39.2492818  75.1680682  80.8441007  29.5715455  64.4759557  80.1949441
  29.0352812  64.0250295  80.8471037  28.9832164  64.6105465  79.4519905
  27.8663999  81.2423606  74.0894100  28.1060597  81.8742130  74.7673118
  27.0233195  80.8911646  74.3759459  28.9817714  63.9348208  62.7575905
  28.1047180  63.8137009  62.3938151  29.4575467  63.1434286  62.5054793
  38.8490707  72.3901276  79.5274361  37.9617486  72.0527198  79.6500759
  39.4189258  71.6584307  79.7643126  20.5019854  68.7225368  72.8517412
  21.1890894  68.4087098  72.2638427  20.3467983  69.6266732  72.5784663
  25.3054576  63.6115564  77.2802436  25.2212765  63.0041234  76.5452846
  24.4837283  64.1024583  77.2811932  32.3791861  77.0502728  76.4935604
  32.3062032  77.8557700  77.0054908  31.9369254  77.2494694  75.6683625
  32.1681640  76.2874498  70.0038425  31.3849162  76.8296178  70.0976650
  32.8674385  76.8048478  70.4032666  35.4778290  62.0969128  72.6472631
  35.9746990  61.3439090  72.3273701  34.7065272  62.1333444  72.0815840
  34.8390544  76.9489562  78.6493762  35.5518516  77.5837027  78.5769664
  34.3480573  77.0453428  77.8333764  32.0613259  64.2386511  72.3744315
  31.6911047  63.6857551  73.0625221  32.5572352  63.6344644  71.8219315
  29.8902458  74.6984006  79.4699333  30.5911917  75.3320489  79.6228727
  29.4197573  75.0398737  78.7094972  38.0156853  73.0401956  67.7547240
  38.2916697  72.9258550  68.6641114  37.1461352  72.6419440  67.7159413
  37.9197285  59.0638721  74.7951990  37.0060365  59.2942948  74.9634196
  38.3490387  59.1477165  75.6466022  37.6903744  67.2528613  77.2951884
  37.0375194  67.5004521  76.6404336  38.0684123  66.4392751  76.9614361
  34.6510917  77.2888306  71.3980054  34.8333312  76.4709962  71.8607806
  35.4743903  77.5055999  70.9604944  34.9853083  76.2156492  68.6595102
  35.5140849  75.7048946  68.0465264  35.2481303  75.8999022  69.5240635
  33.7391317  67.9948424  83.7817921  33.0631954  67.8942554  84.4520296
  34.5618951  67.8387638  84.2453918  25.4870176  74.2320361  76.4030436
  26.0723613  73.4864049  76.5358340  25.2895014  74.5424318  77.2867100
  28.3408831  77.2671608  71.4192878  27.6719206  77.7517736  70.9356918
  28.2021701  77.5140829  72.3336257  20.0787830  66.8025961  75.1234879
  20.1171930  66.2689552  75.9171997  19.5728123  66.2761167  74.5045856
  32.4814099  79.3015352  78.0175537  33.0332408  79.4646973  78.7824622
  32.8220293  79.8919790  77.3455561  27.4578593  61.6490502  78.6197421
  27.5219919  62.5105332  78.2074819  27.3945713  61.0364503  77.8869780
  26.9330865  63.7213634  82.2670456  27.5602904  63.3390711  82.8807980
  26.0758784  63.5027836  82.6326148  37.3324974  74.1276609  83.8724191
  37.8764878  74.7406567  83.3779146  36.7511819  74.6856188  84.3891204
  23.7096408  65.5290063  68.1988810  24.0049849  64.6200742  68.1455864
  22.8084444  65.5077803  67.8769813  35.6182487  77.2497327  75.0039219
  35.4933626  76.4487067  74.4950164  36.2761578  77.7443521  74.5153189
  27.2390655  63.6046060  74.1816359  26.5177241  64.2182027  74.0423832
  28.0283911  64.1403825  74.1033005  37.6817395  75.0506347  76.6318769
  36.7347731  74.9311698  76.5597096  38.0300168  74.1628845  76.7145030
  30.0416969  60.9400486  80.4557011  30.5651370  61.1862783  81.2183320
  29.8229302  61.7720521  80.0360148  25.4384250  63.2104161  68.3228136
  25.1096956  62.3301540  68.1403242  25.7923620  63.1551830  69.2104525
  34.6863828  74.8459064  72.8323121  34.5388791  73.9175771  73.0130691
  35.5117322  74.8679154  72.3480196  28.5526073  63.4977131  68.6903613
  28.8922145  64.0263052  67.9682222  28.9998193  63.8357537  69.4662180
  38.2897950  75.6687622  73.9187994  39.2144498  75.4630484  73.7812445
  38.1213254  75.4204023  74.8277335  31.2469514  61.8814181  78.1406681
  30.9066334  61.0821994  78.5427361  30.5408520  62.1815892  77.5683515
  31.8985985  58.9663494  76.5934004  32.7212055  58.4923972  76.4712895
  32.1424049  59.7453978  77.0932691  30.5394220  61.9951752  66.8896906
  31.2602582  62.3733005  66.3860623  29.9159524  62.7140629  66.9931884
  34.6825343  62.6996901  67.8255238  34.8988957  63.5821539  67.5244067
  34.2019410  62.3083115  67.0960880  29.4224564  65.6582614  74.4025983
  29.2769145  65.9722917  75.2950264  28.9449768  66.2767515  73.8496882
  31.2820947  62.6485162  74.4506873  31.2682516  61.7526256  74.1139170
  31.9993375  62.6555826  75.0845159  33.1347078  63.0822503  76.4960000
  32.8764856  64.0039573  76.4944330  32.6032118  62.6852937  77.1860464
  38.0793267  76.1873290  69.2750085  38.2530144  75.6219712  68.5223938
  38.5722158  76.9874185  69.0929575  23.8970226  68.1987959  77.3413644
  23.3523694  68.9747767  77.4733918  24.7749576  68.5458763  77.1832766
  30.6857843  61.5299543  69.7194443  30.8073754  60.6016189  69.9185330
  30.3959885  61.5438229  68.8072758  33.5549033  59.2154453  72.8561162
  33.5770730  59.2793786  71.9013142  33.9717092  58.3758962  73.0501669
  39.0668439  75.5040054  66.3746984  39.7619344  76.1246747  66.5934298
  39.4091589  74.6535405  66.6499361  24.6836248  67.3257855  80.2343801
  23.9417984  67.4740490  80.8208431  24.3628992  67.5866121  79.3710550
  40.9659862  72.9539760  67.9034314  41.4911186  73.2927032  67.1783634
  40.8782215  72.0186775  67.7197449  32.6279911  76.8673833  80.0324191
  32.9367037  76.6222980  80.9046891  33.4255393  77.0720472  79.5443061
  32.6500523  79.0211743  72.2629568  32.2105513  78.5288122  72.9562424
  33.4008640  78.4784711  72.0221643  25.1292862  75.2123284  72.2654196
  25.9550882  74.9127056  71.8852839  24.7786914  74.4430906  72.7143984
  30.0974395  74.5649752  74.3351869  29.4754404  73.9020457  74.0354097
  30.7679262  74.5910884  73.6525517  23.3301467  73.1309610  73.2243129
  22.4933375  72.7031785  73.0427130  23.3025112  73.3242054  74.1613920
  30.1698923  63.0431540  83.9284375  30.2187078  63.9193663  83.5462145
  30.7121437  62.5008933  83.3556018  40.6553768  73.5872663  83.2085512
  39.8649312  73.5696802  82.6690012  40.4187123  74.1260957  83.9634549
  40.7751643  70.4365130  80.5218241  40.8249648  70.2715137  81.4633764
  40.6665567  69.5692389  80.1316122  29.6587902  73.1153675  67.8110330
  29.8076022  73.7989140  67.1577003  30.4654345  73.0958765  68.3259786
  38.0655406  66.4196058  81.8377548  38.9665268  66.2802523  81.5461545
  38.1403380  66.5850513  82.7775725  32.3998211  63.7962912  80.6830734
  31.5301520  64.0896478  80.4113322  32.6357691  64.3803357  81.4037998
  42.2769840  72.8562071  80.7660262  41.9854648  73.2192052  81.6023723
  41.6641971  72.1429079  80.5873594  43.4765522  70.4214951  73.2862833
  44.3112414  70.8604755  73.4500393  43.6124651  69.9453604  72.4671078
  40.5257028  67.9794686  79.2340320  41.0011150  68.1722332  78.4259172
  39.6022594  68.0353872  78.9883704  27.4140535  69.1418853  68.8171399
  27.1686577  68.2381183  69.0151609  27.5836449  69.1436003  67.8750877
  35.1037245  60.0142529  78.1996154  35.6219189  60.7503556  77.8742643
  34.7492378  60.3206523  79.0342913  26.6836182  64.8747211  66.3157560
  25.9905427  64.9491566  65.6597596  26.4387934  64.1107554  66.8379077
  35.3549839  56.4342812  73.7197051  35.6351593  55.7666001  74.3457477
  36.1400446  56.6271908  73.2071715  33.1583307  75.6101806  65.2822077
  32.5857275  76.2291993  64.8292549  33.7316101  76.1601167  65.8161999
  39.2258697  64.8560446  77.4668626  40.1776120  64.9558544  77.4880850
  39.0562148  64.0638714  77.9766710  37.2473077  61.9416029  77.6528027
  36.6523009  62.2221042  76.9574516  36.9622773  62.4309930  78.4244768
  36.3780567  75.8938956  66.4130659  37.3111240  75.8284518  66.6163535
  36.2903780  76.7295223  65.9545192  39.0068584  75.2104826  63.3734607
  38.9282215  74.8764690  64.2670365  39.8278251  75.7026594  63.3726079
  41.7046775  68.0766566  76.5810926  41.6723095  67.1382566  76.7670609
  42.3147399  68.1550602  75.8476751  33.5430106  66.9462619  62.6238130
  34.4889211  66.8168827  62.6926548  33.1644351  66.2077280  63.1007558
  41.8541264  64.8677609  76.6269209  41.3380312  64.0836066  76.4399138
  42.7381212  64.5396326  76.7915728  39.5151990  58.6118625  72.5865022
  39.3176812  58.3033713  73.4708353  40.1251696  59.3380263  72.7162951
  47.5223325  69.1382572  75.7216962  48.2526713  68.8767861  76.2824666
  46.9130270  68.4011294  75.7619030  45.6038622  67.2790435  76.3191414
  44.8771786  67.1446400  75.7107905  45.1885909  67.5867264  77.1248132
  33.4268798  70.9980365  84.0838787  34.3471808  71.1758964  84.2778833
  33.3918382  70.0536410  83.9318486  31.7273023  64.8712595  62.5593015
  30.8204478  64.5745708  62.6355729  32.0049004  64.5742413  61.6927301
  22.6450963  66.1918958  73.0092061  22.3253748  65.3384267  72.7166435
  22.0984392  66.4067536  73.7650029  26.4230871  68.9081399  76.7261568
  26.6416881  69.8398507  76.7449602  26.8356645  68.5489374  77.5116372
  33.3435089  59.4149485  68.7137256  32.5335817  59.0696570  69.0892502
  34.0319506  59.1057028  69.3024868  35.2725637  58.4927531  70.3361553
  35.8256676  58.9122985  70.9951576  35.5095723  57.5663280  70.3784509
  31.2958736  64.4814605  86.1164317  31.1955463  65.4308962  86.0476408
  31.0780278  64.1532844  85.2440387  30.4971808  61.7299530  62.7004994
  31.3590972  62.0554428  62.9600811  30.6822152  60.9431026  62.1878060
  22.5139223  69.8121870  74.9785183  21.8202695  69.3975823  74.4655137
  23.2612214  69.8542406  74.3818602  38.6504444  60.6028057  69.8440217
  38.0703113  61.2612861  69.4618270  38.3840377  59.7805401  69.4327635
  37.1008011  60.0033114  72.0461537  37.6007789  60.1149649  71.2375856
  37.7443618  59.6994167  72.6862346  31.1590006  67.9111744  84.9329378
  30.6757088  68.7112104  85.1393267  31.2450945  67.9219689  83.9796822
  24.4275966  69.7440124  72.8551198  24.4046654  69.8427811  71.9033081
  24.7376603  70.5905274  73.1768364  27.0863344  71.8016279  76.9697812
  28.0406597  71.7700221  76.9027744  26.8875867  71.3406902  77.7848038
  27.6762726  70.3717395  79.5368610  28.4955615  70.8661473  79.5603447
  27.9499534  69.4549363  79.5086177  37.4329322  62.7628147  68.8996565
  36.5455177  63.0477798  68.6816760  37.8483311  62.6021910  68.0523842
  25.4413573  77.3435898  73.9868010  25.3068041  76.5836299  73.4206008
  25.0245635  78.0676798  73.5196799  36.5772536  72.5272822  62.9944585
  37.2808386  72.7322824  63.6102241  35.8535184  73.0949584  63.2593669
  28.5982699  78.2405215  74.1986453  28.4815083  79.1850648  74.0965143
  27.7775145  77.9378777  74.5872252  38.4859233  72.9655351  65.0443045
  39.3204837  72.5336549  64.8620520  38.3243576  72.7937365  65.9719940
  22.9297640  64.7055529  80.2360807  23.5756504  64.1954483  80.7248032
  22.7214791  65.4424210  80.8104232  35.4551032  71.7736376  85.7352947
  36.3242192  71.9477028  85.3739582  34.9757784  72.5930793  85.6128677
  31.4501251  58.9695573  65.9884703  31.4379921  59.9137413  66.1452974
  32.3424673  58.7865719  65.6944164  29.6237213  78.8933477  77.4142381
  30.5264459  78.9257087  77.7308876  29.3974583  77.9633928  77.4288717
  31.3790815  77.6464464  74.0752460  30.4286446  77.6466325  73.9616832
  31.6823301  76.8997198  73.5588494  35.2653370  55.5638350  70.2430640
  34.4985766  55.0096837  70.3887322  35.6764075  55.6360219  71.1044792
  27.2695131  61.8523146  84.3335821  28.1326593  61.4959950  84.5439146
  26.6960542  61.5137040  85.0211225  47.1143508  83.4825002  75.1398222
  47.7521918  83.3631749  74.4361562  46.9964351  84.4305846  75.1986174
  43.9233214  83.4352430  75.0759747  43.5851726  83.3193495  74.1880282
  44.7922983  83.0343595  75.0560753  39.7820030  85.2887907  71.0656638
  39.2184895  85.1977843  70.2972926  39.6672425  84.4687811  71.5459130
  44.4052997  84.5887282  81.0345952  44.3941638  84.1940080  80.1626456
  44.5673637  83.8553354  81.6279724  37.3284462  86.7839098  73.9040858
  38.1205754  86.4429923  73.4887158  37.5681112  86.8934073  74.8243012
  45.3619589  88.9558874  66.3771103  44.7107569  89.5412955  65.9905117
  46.1563952  89.4865069  66.4366140  39.2875216  86.0448011  66.7758237
  40.0606092  85.4976998  66.6371113  39.6400615  86.9092261  66.9872698
  41.1260259  87.3724394  79.9825136  40.8350125  88.2770024  79.8671803
  41.7617243  87.4140921  80.6969206  42.0516465  84.7501242  76.5726496
  42.6480038  84.5257265  75.8583459  42.1091437  84.0085988  77.1751944
  41.6241494  82.2040677  64.4076687  41.8767015  81.6822199  63.6460150
  40.6866053  82.0406823  64.5103371  46.6684777  81.2076456  72.2151430
  47.4547866  80.7895879  71.8641847  46.9323481  82.1122548  72.3833079
  46.8394854  86.6449306  66.9140087  46.2040687  86.7183933  67.6260992
  46.5092260  87.2342905  66.2359166  52.0693204  81.1451689  73.1184409
  52.8018376  80.5750906  73.3522238  51.3132560  80.7573289  73.5590914
  41.3437783  84.1068783  66.6101062  41.2274041  83.4313687  67.2782146
  41.4540042  83.6201157  65.7933215  43.6869324  83.5678931  70.3147751
  43.3227531  83.0409552  71.0260673  44.5436439  83.1777400  70.1414237
  49.5918624  74.8573263  77.5779017  49.2601949  75.7268674  77.3540232
  48.9964238  74.5409547  78.2573048  43.3274811  78.5968830  65.3109100
  43.4949213  79.4649067  65.6779571  43.1371980  78.7596112  64.3870389
  46.0850144  87.0585809  76.9774930  45.7850867  87.9610848  76.8690737
  45.7401203  86.7917992  77.8296083  39.5362625  83.5099606  73.0111634
  38.6113122  83.3775820  73.2189326  39.7847038  84.2893825  73.5081577
  49.4847287  79.5768349  74.6572367  48.5764165  79.5083758  74.3631128
  49.4334883  80.0540294  75.4854193  43.3064031  81.0526488  66.2955767
  43.1863657  81.4983538  67.1341247  42.6116620  81.4011805  65.7369305
  36.8971436  83.1532880  73.8455424  37.0263817  83.4067358  74.7594835
  36.2168888  83.7460588  73.5260079  41.0670923  93.8230129  69.9445898
  40.9894953  94.7737955  70.0234378  40.4632567  93.4776002  70.6020824
  43.5588153  80.9957995  82.6007265  42.7821487  81.5551915  82.5910129
  44.1978716  81.4814778  83.1222135  51.3508934  77.7784788  76.4350241
  50.7083314  78.0717321  75.7890036  50.8463862  77.6637708  77.2403438
  49.0049098  81.5247961  67.1236101  49.9166954  81.7575348  66.9483798
  48.4958745  82.1085005  66.5611179  41.8134526  83.8043448  82.1625232
  42.5549210  84.3428492  81.8860055  41.1071511  84.4309737  82.3196783
  47.2889865  85.9472589  80.7597393  47.6973221  85.5054999  80.0152025
  46.5667127  85.3725216  81.0131586  43.6420935  80.8845196  78.1330950
  44.4882130  81.3084609  78.2765599  43.5819573  80.2278820  78.8269513
  47.6118680  86.5073779  74.5149682  46.9827542  86.6719493  73.8125750
  47.2244342  86.9215389  75.2860646  51.4907912  87.4428217  71.8694046
  50.8058950  87.8227119  71.3191079  51.5751761  88.0523544  72.6025994
  46.7920381  78.5449564  79.7912124  46.5481312  79.2991624  79.2546399
  47.0680311  78.9234911  80.6259371  48.7458843  85.0888176  78.4689389
  48.9575739  85.7319936  77.7923770  48.6988592  84.2550493  78.0011319
  46.3485072  77.7005997  75.3725961  45.4869551  77.9987250  75.6642699
  46.3747507  77.9176396  74.4406994  43.1646642  86.2448187  71.7799767
  43.6284987  86.5235890  70.9904390  42.9003440  85.3431632  71.5972858
  40.0570723  85.7919669  74.7179530  40.6272080  86.2206937  74.0797015
  40.6478835  85.5102254  75.4163716  42.1015528  82.3671340  68.5889332
  42.8039571  82.8192383  69.0563259  41.7696156  81.7255159  69.2169225
  40.5495889  80.9583096  82.9640542  39.9194550  81.6399377  83.1975938
  40.4431977  80.8466178  82.0193680  35.8440862  80.6254892  73.8906466
  35.0539916  80.8812421  73.4146576  36.3352109  81.4403230  73.9958506
  49.8604671  87.9660132  76.6411747  50.6822115  87.5640319  76.3594428
  49.8567074  87.8628366  77.5927862  37.7955607  80.9899472  70.8489943
  36.9986770  81.1018166  71.3673438  37.5681199  81.3286124  69.9830833
  43.6261275  87.5144175  78.7972457  43.6905707  87.9764582  79.6330629
  42.9172199  86.8841540  78.9254767  34.1278565  80.8785383  76.3221457
  34.3786603  81.7632393  76.5879033  34.6638113  80.6989984  75.5496548
  57.9510664  84.3098880  72.9896718  57.1974373  83.7406278  72.8340723
  58.0858206  84.2761545  73.9367353  43.3409292  89.1812282  68.6651437
  43.2054967  90.0263818  69.0936285  43.8819105  89.3831560  67.9017371
  39.8276632  75.2603862  85.3265793  39.4343578  74.7070061  86.0013437
  40.6442772  75.5714441  85.7172310  36.7938690  86.6987720  69.2379363
  37.3063210  87.4930971  69.3884927  37.4461403  86.0014011  69.1712964
  38.6033574  89.8153477  71.3202116  38.7800203  90.7371441  71.1323100
  39.3990408  89.5011896  71.7496496  42.7444593  76.6761741  82.9186049
  43.4854306  77.2768895  82.8390512  42.9762516  75.9339379  82.3604092
  37.8885931  81.8618109  81.1964279  37.7739446  80.9603366  81.4971378
  37.0330449  82.1081805  80.8449095  44.9677769  89.8035849  82.7951780
  44.5241623  89.0172228  82.4772684  45.6294982  89.9914999  82.1295670
  39.7264890  91.3331651  77.3212458  40.2772315  91.2048714  76.5489452
  38.8876366  91.6326540  76.9707351  47.0659007  90.0838649  80.8233181
  47.0477482  90.9047530  80.3313450  47.9878927  89.9592724  81.0483322
  43.5232061  87.5982778  81.6656689  44.0560398  86.8371067  81.4355997
  42.9946142  87.3056430  82.4080844  46.6901756  72.7042844  77.1950331
  46.3466025  73.5944486  77.1189442  47.0580719  72.5144502  76.3319916
  34.7587607  85.0276375  70.0138933  35.5962829  85.4373383  69.7972641
  34.9365874  84.0875817  69.9839127  46.6552039  82.6951455  65.7022766
  46.1398662  83.4656060  65.9411153  46.3829347  82.0216592  66.3255828
  44.2399150  77.5401156  70.7608004  43.3840746  77.1508007  70.5813643
  44.6526101  77.6193117  69.9007790  45.7698296  75.0747499  75.1599564
  45.2663092  75.0377635  74.3467369  46.0628903  75.9840242  75.2196221
  42.0141182  75.1586229  74.1665746  42.8794179  74.9629038  73.8071635
  42.0818691  74.9296581  75.0935103  51.6286313  85.4483810  67.6375940
  50.8515756  85.1094970  67.1931102  52.3077794  85.4536433  66.9630905
  46.4438342  80.5678548  67.5282547  46.1388477  80.8824697  68.3792690
  47.3968784  80.6459967  67.5709880  44.8884774  86.7268771  69.1775501
  44.3606135  85.9921530  68.8648739  44.3872276  87.5043447  68.9315470
  49.8677620  84.9217791  74.2942548  49.2101294  85.6117053  74.3822676
  50.6718019  85.3114223  74.6376534  39.6203501  77.3888437  71.5382113
  40.1947253  77.1663619  70.8055306  40.2074484  77.4577132  72.2910714
  48.6783079  83.2762164  72.3446489  49.1914960  83.9092156  72.8468199
  49.3284302  82.6763360  71.9789849  39.9473088  79.4192898  65.5577998
  39.1110401  79.7567585  65.8787273  39.8077858  79.2841878  64.6205135
  41.9226169  74.2629686  70.2657182  41.2690581  73.9478703  69.6413797
  41.8806643  73.6405426  70.9917005  43.0337374  84.5448981  62.1810474
  42.1264436  84.3138235  62.3801623  43.5308406  83.7486600  62.3684456
  45.9405453  93.2546488  65.1007160  45.2667152  93.5578185  65.7092118
  46.3271275  94.0575569  64.7512617  45.1563909  80.7511620  74.5904830
  44.2386471  80.9726567  74.4326518  45.5724053  80.8257930  73.7316537
  45.9398957  82.1503035  69.7207510  46.6870776  82.6624432  69.4114632
  46.2090547  81.8287088  70.5811904  44.2125607  84.6461576  66.7034464
  43.3036827  84.3620609  66.8006934  44.2420691  85.0660655  65.8437771
  49.4444875  88.2568165  70.4725632  48.9907202  87.4159075  70.5290822
  48.8138841  88.8929564  70.8100412  48.3877794  79.1860152  71.7026299
  47.6500551  78.6737538  72.0336542  48.6404568  78.7460533  70.8909576
  47.8877814  90.0944662  71.4075450  48.1800788  90.6549719  70.6887816
  48.3976435  90.3873223  72.1628609  48.4889422  71.9636404  72.2968069
  48.7948298  71.1033767  72.0093984  49.2142026  72.5554024  72.0967063
  34.7813778  82.3667090  70.6849667  34.5838178  81.7736451  69.9600733
  34.2260442  82.0619300  71.4025605  42.7610501  82.2590197  72.8044260
  42.8159111  81.3064033  72.7286736  41.9501703  82.4149636  73.2885558
  43.9101695  86.1870320  64.0422543  43.4721125  85.4706179  63.5828180
  44.6512136  86.4146434  63.4807634  40.7002861  80.8767256  70.5634639
  39.8870727  81.1761427  70.9699831  41.1961855  80.4822945  71.2809121
  42.8511439  90.8725013  72.4968903  42.8087618  91.0985860  71.5677435
  43.7674138  90.6388388  72.6454704  46.2977073  81.3409081  79.3949532
  46.6526461  81.5680554  80.2543998  46.9449204  81.6727458  78.7726788
  52.0274810  84.4627517  70.0998861  51.8892709  84.6529113  69.1720051
  51.6711029  85.2246899  70.5566913  40.1916936  78.4485612  76.1795874
  40.8316315  78.3074371  75.4818837  39.3594467  78.1620125  75.8034476
  52.0544190  86.5304044  75.1110133  52.4880696  86.4379333  75.9593187
  52.7675770  86.5061544  74.4730149  40.9677240  87.7488042  72.2930866
  41.7617838  87.2538362  72.0913441  40.2568932  87.2205905  71.9298572
  45.7872084  90.1306138  76.6443234  45.8409107  90.6997074  77.4120949
  44.9186866  90.3008023  76.2797271  37.2760003  81.8931124  68.3690619
  36.3457592  81.8315579  68.5860581  37.3717475  81.3707077  67.5727260
  37.1945552  78.4185937  70.9568860  37.4552370  79.3331270  70.8478021
  38.0162725  77.9510379  71.1065473  38.6670478  79.8323694  78.1267685
  39.3393531  79.6241056  77.4780334  37.8400264  79.6345780  77.6872917
  52.9159739  86.5727744  77.6443018  53.1095629  87.4773555  77.8902293
  52.8160357  86.1135163  78.4781603  44.5696050  76.4585635  80.1433346
  43.9223965  77.1575585  80.0497822  45.3397065  76.8921779  80.5109594
  47.9774848  86.7234487  83.2183899  47.8260354  86.4945039  82.3013983
  47.9679527  87.6805089  83.2315244  44.7460184  84.2966400  78.2030165
  45.6752244  84.4477559  78.0299133  44.3251214  84.3850421  77.3478812
  43.5448516  88.3217064  75.9728703  43.4059602  87.9535849  76.8454641
  42.7563112  88.8364704  75.8012661  44.1396668  93.4226161  67.3154240
  44.3148424  92.9514204  68.1299862  43.4529456  94.0491927  67.5435500
  45.0953731  87.6998667  73.3617541  44.7603564  87.6599437  74.2575191
  44.5957677  87.0343383  72.8887951  39.0697975  83.1066297  78.8870122
  38.9317773  82.3746536  79.4881661  39.9802899  83.0175197  78.6054310
  48.0312923  85.0454701  63.6354601  47.4142093  84.3201529  63.5387653
  47.5629411  85.8064062  63.2921675  41.6980276  82.8186256  78.3753802
  42.4079894  82.1779448  78.3340420  41.6549584  83.0699151  79.2979982
  49.6867054  89.7553610  81.2960381  49.6279601  89.0712830  80.6290964
  50.0886573  90.4972600  80.8441007  40.4109210  79.8051474  80.1949441
  39.8746567  79.3542213  80.8471037  39.8225918  79.9397383  79.4519905
  38.7057753  96.5715523  74.0894100  38.9454351  97.2034048  74.7673118
  37.8626950  96.2203564  74.3759459  39.8211469  79.2640126  62.7575905
  38.9440935  79.1428926  62.3938151  40.2969222  78.4726204  62.5054793
  49.6884462  87.7193194  79.5274361  48.8011240  87.3819115  79.6500759
  50.2583013  86.9876225  79.7643126  31.3413609  84.0517285  72.8517412
  32.0284649  83.7379015  72.2638427  31.1861737  84.9558650  72.5784663
  36.1448331  78.9407482  77.2802436  36.0606520  78.3333151  76.5452846
  35.3231037  79.4316500  77.2811932  43.2185615  92.3794646  76.4935604
  43.1455787  93.1849617  77.0054908  42.7763008  92.5786612  75.6683625
  43.0075395  91.6166416  70.0038425  42.2242917  92.1588096  70.0976650
  43.7068140  92.1340396  70.4032666  46.3172045  77.4261045  72.6472631
  46.8140744  76.6731008  72.3273701  45.5459026  77.4625362  72.0815840
  54.1701802  83.1301411  74.2890922  54.1591678  84.0126126  73.9184855
  53.3019182  82.7772962  74.0945459  45.6784299  92.2781480  78.6493762
  46.3912271  92.9128945  78.5769664  45.1874327  92.3745346  77.8333764
  47.4001825  86.1832733  70.2211054  46.4658104  86.3034195  70.0515758
  47.5778494  85.2805199  69.9571064  42.9007014  79.5678428  72.3744315
  42.5304801  79.0149469  73.0625221  43.3966106  78.9636562  71.8219315
  50.7874377  82.0250052  70.7561088  51.2534829  82.8578044  70.6821391
  51.2381877  81.5595033  71.4606347  40.7296212  90.0275923  79.4699333
  41.4305672  90.6612406  79.6228727  40.2591327  90.3690655  78.7094972
  48.8550608  88.3693873  67.7547240  49.1310452  88.2550468  68.6641114
  47.9855107  87.9711358  67.7159413  48.7591040  74.3930639  74.7951990
  47.8454119  74.6234866  74.9634196  49.1884141  74.4769083  75.6466022
  48.5297498  82.5820531  77.2951884  47.8768948  82.8296438  76.6404336
  48.9077878  81.7684669  76.9614361  45.4904672  92.6180224  71.3980054
  45.6727066  91.8001880  71.8607806  46.3137658  92.8347916  70.9604944
  45.8246837  91.5448409  68.6595102  46.3534604  91.0340864  68.0465264
  46.0875057  91.2290939  69.5240635  44.5785071  83.3240342  83.7817921
  43.9025708  83.2234471  84.4520296  45.4012705  83.1679556  84.2453918
  36.3263930  89.5612278  76.4030436  36.9117367  88.8155966  76.5358340
  36.1288769  89.8716235  77.2867100  39.1802585  92.5963526  71.4192878
  38.5112961  93.0809653  70.9356918  39.0415455  92.8432746  72.3336257
  30.9181585  82.1317879  75.1234879  30.9565684  81.5981469  75.9171997
  30.4121878  81.6053084  74.5045856  43.3207854  94.6307269  78.0175537
  43.8726162  94.7938891  78.7824622  43.6614047  95.2211707  77.3455561
  38.2972347  76.9782419  78.6197421  38.3613674  77.8397250  78.2074819
  38.2339467  76.3656421  77.8869780  37.7724620  79.0505552  82.2670456
  38.3996659  78.6682629  82.8807980  36.9152539  78.8319754  82.6326148
  48.1718728  89.4568527  83.8724191  48.7158632  90.0698485  83.3779146
  47.5905573  90.0148105  84.3891204  34.5490162  80.8581981  68.1988810
  34.8443604  79.9492659  68.1455864  33.6478198  80.8369720  67.8769813
  46.4576241  92.5789245  75.0039219  46.3327381  91.7778985  74.4950164
  47.1155332  93.0735438  74.5153189  38.0784409  78.9337977  74.1816359
  37.3570995  79.5473945  74.0423832  38.8677665  79.4695742  74.1033005
  48.5211150  90.3798265  76.6318769  47.5741485  90.2603616  76.5597096
  48.8693923  89.4920763  76.7145030  40.8810723  76.2692404  80.4557011
  41.4045125  76.5154700  81.2183320  40.6623056  77.1012439  80.0360148
  36.2778004  78.5396078  68.3228136  35.9490710  77.6593457  68.1403242
  36.6317375  78.4843747  69.2104525  45.5257583  90.1750981  72.8323121
  45.3782545  89.2467689  73.0130691  46.3511076  90.1971072  72.3480196
  39.3919827  78.8269048  68.6903613  39.7315900  79.3554970  67.9682222
  39.8391948  79.1649454  69.4662180  49.1291705  90.9979540  73.9187994
  50.0538252  90.7922401  73.7812445  48.9607008  90.7495941  74.8277335
  42.0863268  77.2106099  78.1406681  41.7460088  76.4113912  78.5427361
  41.3802274  77.5107810  77.5683515  42.7379740  74.2955411  76.5934004
  43.5605809  73.8215890  76.4712895  42.9817803  75.0745895  77.0932691
  41.3787974  77.3243670  66.8896906  42.0996337  77.7024923  66.3860623
  40.7553279  78.0432547  66.9931884  45.5219097  78.0288819  67.8255238
  45.7382712  78.9113457  67.5244067  45.0413164  77.6375032  67.0960880
  40.2618319  80.9874532  74.4025983  40.1162899  81.3014835  75.2950264
  39.7843522  81.6059432  73.8496882  42.1214702  77.9777080  74.4506873
  42.1076270  77.0818173  74.1139170  42.8387130  77.9847744  75.0845159
  43.9740832  78.4114420  76.4960000  43.7158610  79.3331491  76.4944330
  43.4425873  78.0144855  77.1860464  48.9187021  91.5165207  69.2750085
  49.0923899  90.9511630  68.5223938  49.4115912  92.3166102  69.0929575
  34.7363981  83.5279876  77.3413644  34.1917449  84.3039684  77.4733918
  35.6143331  83.8750681  77.1832766  41.5251597  76.8591460  69.7194443
  41.6467509  75.9308107  69.9185330  41.2353640  76.8730146  68.8072758
  44.3942788  74.5446371  72.8561162  44.4164485  74.6085704  71.9013142
  44.8110847  73.7050879  73.0501669  54.7726412  84.2801630  70.8940385
  55.2157558  83.5308956  70.4959508  53.8952922  84.2711767  70.5114117
  49.9062193  90.8331972  66.3746984  50.6013098  91.4538664  66.5934298
  50.2485344  89.9827323  66.6499361  35.5230003  82.6549773  80.2343801
  34.7811739  82.8032408  80.8208431  35.2022747  82.9158038  79.3710550
  51.8053617  88.2831677  67.9034314  52.3304941  88.6218950  67.1783634
  51.7175969  87.3478693  67.7197449  43.4673665  92.1965751  80.0324191
  43.7760792  91.9514898  80.9046891  44.2649147  92.4012389  79.5443061
  43.4894277  94.3503661  72.2629568  43.0499268  93.8580039  72.9562424
  44.2402394  93.8076628  72.0221643  35.9686616  90.5415201  72.2654196
  36.7944636  90.2418973  71.8852839  35.6180668  89.7722824  72.7143984
  40.9368150  89.8941670  74.3351869  40.3148159  89.2312375  74.0354097
  41.6073016  89.9202802  73.6525517  34.1695221  88.4601528  73.2243129
  33.3327130  88.0323702  73.0427130  34.1418867  88.6533971  74.1613920
  41.0092677  78.3723458  83.9284375  41.0580832  79.2485581  83.5462145
  41.5515191  77.8300851  83.3556018  51.4947523  88.9164581  83.2085512
  50.7043066  88.8988720  82.6690012  51.2580877  89.4552875  83.9634549
  51.6145398  85.7657047  80.5218241  51.6643403  85.6007055  81.4633764
  51.5059321  84.8984306  80.1316122  40.4981656  88.4445593  67.8110330
  40.6469777  89.1281057  67.1577003  41.3048100  88.4250683  68.3259786
  48.9049160  81.7487975  81.8377548  49.8059023  81.6094440  81.5461545
  48.9797135  81.9142430  82.7775725  43.2391965  79.1254830  80.6830734
  42.3695275  79.4188396  80.4113322  43.4751446  79.7095275  81.4037998
  53.1163595  88.1853989  80.7660262  52.8248403  88.5483969  81.6023723
  52.5035726  87.4720997  80.5873594  54.3159277  85.7506869  73.2862833
  55.1506168  86.1896673  73.4500393  54.4518406  85.2745522  72.4671078
  51.3650783  83.3086603  79.2340320  51.8404904  83.5014250  78.4259172
  50.4416348  83.3645789  78.9883704  38.2534289  84.4710771  68.8171399
  38.0080331  83.5673101  69.0151609  38.4230204  84.4727921  67.8750877
  45.9430999  75.3434447  78.1996154  46.4612943  76.0795474  77.8742643
  45.5886132  75.6498440  79.0342913  37.5229937  80.2039128  66.3157560
  36.8299182  80.2783483  65.6597596  37.2781689  79.4399472  66.8379077
  46.1943593  71.7634730  73.7197051  46.4745347  71.0957919  74.3457477
  46.9794200  71.9563825  73.2071715  43.9977062  90.9393723  65.2822077
  43.4251029  91.5583911  64.8292549  44.5709856  91.4893085  65.8161999
  50.0652452  80.1852364  77.4668626  51.0169875  80.2850461  77.4880850
  49.8955902  79.3930632  77.9766710  48.0866831  77.2707947  77.6528027
  47.4916763  77.5512959  76.9574516  47.8016528  77.7601848  78.4244768
  47.2174322  91.2230874  66.4130659  48.1504995  91.1576435  66.6163535
  47.1297535  92.0587140  65.9545192  49.8462338  90.5396744  63.3734607
  49.7675970  90.2056608  64.2670365  50.6672005  91.0318512  63.3726079
  52.5440530  83.4058483  76.5810926  52.5116850  82.4674484  76.7670609
  53.1541153  83.4842520  75.8476751  44.3823860  82.2754536  62.6238130
  45.3282965  82.1460744  62.6926548  44.0038105  81.5369198  63.1007558
  52.6935018  80.1969527  76.6269209  52.1774067  79.4127983  76.4399138
  53.5774967  79.8688243  76.7915728  50.3545745  73.9410542  72.5865022
  50.1570566  73.6325630  73.4708353  50.9645451  74.6672181  72.7162951
  58.3617079  84.4674490  75.7216962  59.0920468  84.2059778  76.2824666
  57.7524025  83.7303212  75.7619030  56.4432377  82.6082353  76.3191414
  55.7165540  82.4738318  75.7107905  56.0279663  82.9159181  77.1248132
  44.2662553  86.3272282  84.0838787  45.1865562  86.5050881  84.2778833
  44.2312136  85.3828328  83.9318486  42.5666778  80.2004513  62.5593015
  41.6598233  79.9037625  62.6355729  42.8442759  79.9034331  61.6927301
  33.4844718  81.5210876  73.0092061  33.1647502  80.6676184  72.7166435
  32.9378146  81.7359454  73.7650029  37.2624626  84.2373317  76.7261568
  37.4810635  85.1690425  76.7449602  37.6750399  83.8781291  77.5116372
  44.1828843  74.7441402  68.7137256  43.3729572  74.3988487  69.0892502
  44.8713260  74.4348946  69.3024868  46.1119392  73.8219449  70.3361553
  46.6650430  74.2414903  70.9951576  46.3489478  72.8955197  70.3784509
  42.1352491  79.8106523  86.1164317  42.0349218  80.7600880  86.0476408
  41.9174033  79.4824762  85.2440387  41.3365562  77.0591448  62.7004994
  42.1984726  77.3846346  62.9600811  41.5215906  76.2722944  62.1878060
  33.3532978  85.1413788  74.9785183  32.6596449  84.7267740  74.4655137
  34.1005969  85.1834324  74.3818602  49.4898199  75.9319974  69.8440217
  48.9096868  76.5904778  69.4618270  49.2234131  75.1097319  69.4327635
  47.9401765  75.3325032  72.0461537  48.4401543  75.4441567  71.2375856
  48.5837373  75.0286085  72.6862346  41.9983761  83.2403662  84.9329378
  41.5150843  84.0404022  85.1393267  42.0844700  83.2511606  83.9796822
  35.2669720  85.0732041  72.8551198  35.2440409  85.1719729  71.9033081
  35.5770357  85.9197192  73.1768364  37.9257098  87.1308196  76.9697812
  38.8800352  87.0992139  76.9027744  37.7269622  86.6698820  77.7848038
  38.5156481  85.7009312  79.5368610  39.3349369  86.1953391  79.5603447
  38.7893288  84.7841281  79.5086177  48.2723077  78.0920065  68.8996565
  47.3848932  78.3769715  68.6816760  48.6877066  77.9313828  68.0523842
  51.6237613  78.1166586  72.6150905  52.3998003  78.6063038  72.8875521
  50.8985747  78.5424640  73.0722774  54.0610171  78.8294205  73.6724845
  54.6554662  78.5889941  72.9618153  54.1336755  78.1101335  74.2998382
  36.2807327  92.6727816  73.9868010  36.1461795  91.9128217  73.4206008
  35.8639389  93.3968716  73.5196799  47.4166290  87.8564739  62.9944585
  48.1202140  88.0614742  63.6102241  46.6928939  88.4241501  63.2593669
  48.2464100  83.6074601  69.1146856  48.1899302  84.0643152  68.2754488
  48.7992443  82.8465285  68.9369698  52.0568906  79.3964332  69.9396975
  51.8005841  78.9960968  70.7705183  51.4321774  80.1108126  69.8147114
  56.3681244  82.1360406  72.4468266  55.8080802  82.2053595  73.2199828
  55.7624748  81.9601390  71.7267763  39.4376453  93.5697133  74.1986453
  39.3208837  94.5142565  74.0965143  38.6168899  93.2670694  74.5872252
  49.3252988  88.2947269  65.0443045  50.1598592  87.8628467  64.8620520
  49.1637331  88.1229282  65.9719940  48.9798880  84.7979382  66.4099385
  48.9247684  84.6323653  65.4687829  48.3544935  85.5055415  66.5661574
  33.7691395  80.0347446  80.2360807  34.4150258  79.5246400  80.7248032
  33.5608546  80.7716128  80.8104232  46.2944787  87.1028294  85.7352947
  47.1635947  87.2768946  85.3739582  45.8151538  87.9222711  85.6128677
  42.2895005  74.2987491  65.9884703  42.2773675  75.2429331  66.1452974
  43.1818427  74.1157636  65.6944164  40.4630967  94.2225395  77.4142381
  41.3658214  94.2549005  77.7308876  40.2368337  93.2925846  77.4288717
  42.2184569  92.9756381  74.0752460  41.2680200  92.9758243  73.9616832
  42.5217055  92.2289116  73.5588494  46.1047125  70.8930267  70.2430640
  45.3379520  70.3388754  70.3887322  46.5157830  70.9652136  71.1044792
  38.1088886  77.1815063  84.3335821  38.9720347  76.8251868  84.5439146
  37.5354296  76.8428958  85.0211225  57.9537263  98.8116920  75.1398222
  58.5915673  98.6923667  74.4361562  57.8358106  99.7597764  75.1986174
  54.7626969  98.7644348  75.0759747  54.4245480  98.6485412  74.1880282
  55.6316737  98.3635513  75.0560753  50.6213785 100.6179824  71.0656638
  50.0578650 100.5269761  70.2972926  50.5066180  99.7979729  71.5459130
  55.2446752  99.9179199  81.0345952  55.2335393  99.5231998  80.1626456
  55.4067391  99.1845272  81.6279724  48.1678217 102.1131016  73.9040858
  48.9599509 101.7721840  73.4887158  48.4074867 102.2225991  74.8243012
  56.2013343 104.2850792  66.3771103  55.5501323 104.8704872  65.9905117
  56.9957706 104.8156987  66.4366140  50.1268971 101.3739929  66.7758237
  50.8999847 100.8268916  66.6371113  50.4794369 102.2384178  66.9872698
  51.9654013 102.7016311  79.9825136  51.6743879 103.6061942  79.8671803
  52.6010997 102.7432839  80.6969206  52.8910220 100.0793160  76.5726496
  53.4873792  99.8549182  75.8583459  52.9485191  99.3377905  77.1751944
  52.4635248  97.5332595  64.4076687  52.7160769  97.0114116  63.6460150
  51.5259807  97.3698741  64.5103371  57.5078531  96.5368374  72.2151430
  58.2941620  96.1187797  71.8641847  57.7717235  97.4414466  72.3833079
  57.6788609 101.9741224  66.9140087  57.0434441 102.0475850  67.6260992
  57.3486015 102.5634823  66.2359166  62.9086958  96.4743607  73.1184409
  63.6412130  95.9042824  73.3522238  62.1526314  96.0865207  73.5590914
  52.1831537  99.4360701  66.6101062  52.0667795  98.7605604  67.2782146
  52.2933797  98.9493075  65.7933215  54.5263078  98.8970848  70.3147751
  54.1621285  98.3701469  71.0260673  55.3830194  98.5069317  70.1414237
  60.4312379  90.1865181  77.5779017  60.0995703  91.0560592  77.3540232
  59.8357992  89.8701465  78.2573048  54.1668565  93.9260748  65.3109100
  54.3342967  94.7940984  65.6779571  53.9765734  94.0888030  64.3870389
  56.9243898 102.3877727  76.9774930  56.6244621 103.2902766  76.8690737
  56.5794958 102.1209910  77.8296083  50.3756380  98.8391524  73.0111634
  49.4506876  98.7067738  73.2189326  50.6240793  99.6185743  73.5081577
  60.3241042  94.9060267  74.6572367  59.4157919  94.8375675  74.3631128
  60.2728638  95.3832212  75.4854193  54.1457786  96.3818405  66.2955767
  54.0257411  96.8275456  67.1341247  53.4510374  96.7303723  65.7369305
  47.7365191  98.4824797  73.8455424  47.8657572  98.7359276  74.7594835
  47.0562642  99.0752505  73.5260079  51.9064678 109.1522047  69.9445898
  51.8288708 110.1029872  70.0234378  51.3026322 108.8067920  70.6020824
  54.3981908  96.3249913  82.6007265  53.6215242  96.8843833  82.5910129
  55.0372471  96.8106696  83.1222135  62.1902688  93.1076705  76.4350241
  61.5477069  93.4009239  75.7890036  61.6857617  92.9929626  77.2403438
  59.8442852  96.8539879  67.1236101  60.7560708  97.0867265  66.9483798
  59.3352499  97.4376923  66.5611179  52.6528280  99.1335366  82.1625232
  53.3942964  99.6720410  81.8860055  51.9465266  99.7601655  82.3196783
  58.1283620 101.2764506  80.7597393  58.5366976 100.8346917  80.0152025
  57.4060881 100.7017134  81.0131586  54.4814690  96.2137113  78.1330950
  55.3275885  96.6376527  78.2765599  54.4213327  95.5570737  78.8269513
  58.4512434 101.8365697  74.5149682  57.8221297 102.0011411  73.8125750
  58.0638096 102.2507307  75.2860646  62.3301666 102.7720135  71.8694046
  61.6452704 103.1519036  71.3191079  62.4145516 103.3815462  72.6025994
  57.6314135  93.8741482  79.7912124  57.3875067  94.6283542  79.2546399
  57.9074066  94.2526829  80.6259371  59.5852598 100.4180094  78.4689389
  59.7969493 101.0611854  77.7923770  59.5382346  99.5842410  78.0011319
  57.1878827  93.0297915  75.3725961  56.3263306  93.3279168  75.6642699
  57.2141261  93.2468313  74.4406994  54.0040396 101.5740105  71.7799767
  54.4678742 101.8527808  70.9904390  53.7397194 100.6723550  71.5972858
  50.8964477 101.1211587  74.7179530  51.4665834 101.5498855  74.0797015
  51.4872589 100.8394171  75.4163716  52.9409282  97.6963257  68.5889332
  53.6433326  98.1484301  69.0563259  52.6089911  97.0547076  69.2169225
  51.3889644  96.2875014  82.9640542  50.7588304  96.9691295  83.1975938
  51.2825732  96.1758096  82.0193680  46.6834616  95.9546810  73.8906466
  45.8933670  96.2104339  73.4146576  47.1745864  96.7695148  73.9958506
  60.6998426 103.2952049  76.6411747  61.5215870 102.8932237  76.3594428
  60.6960829 103.1920283  77.5927862  48.6349362  96.3191389  70.8489943
  47.8380525  96.4310084  71.3673438  48.4074954  96.6578042  69.9830833
  54.4655029 102.8436093  78.7972457  54.5299462 103.3056500  79.6330629
  53.7565953 102.2133458  78.9254767  44.9672319  96.2077301  76.3221457
  45.2180358  97.0924311  76.5879033  45.5031868  96.0281902  75.5496548
  68.7904419  99.6390798  72.9896718  68.0368127  99.0698196  72.8340723
  68.9251960  99.6053462  73.9367353  54.1803047 104.5104200  68.6651437
  54.0448722 105.3555736  69.0936285  54.7212859 104.7123478  67.9017371
  50.6670387  90.5895780  85.3265793  50.2737332  90.0361979  86.0013437
  51.4836527  90.9006358  85.7172310  47.6332444 102.0279638  69.2379363
  48.1456965 102.8222888  69.3884927  48.2855157 101.3305929  69.1712964
  49.4427329 105.1445394  71.3202116  49.6193957 106.0663359  71.1323100
  50.2384163 104.8303814  71.7496496  53.5838348  92.0053659  82.9186049
  54.3248061  92.6060812  82.8390512  53.8156270  91.2631297  82.3604092
  48.7279686  97.1910026  81.1964279  48.6133201  96.2895284  81.4971378
  47.8724203  97.4373723  80.8449095  55.8071523 105.1327767  82.7951780
  55.3635377 104.3464145  82.4772684  56.4688737 105.3206917  82.1295670
  50.5658644 106.6623568  77.3212458  51.1166070 106.5340632  76.5489452
  49.7270120 106.9618457  76.9707351  57.9052761 105.4130567  80.8233181
  57.8871237 106.2339448  80.3313450  58.8272681 105.2884642  81.0483322
  54.3625815 102.9274696  81.6656689  54.8954152 102.1662984  81.4355997
  53.8339897 102.6348348  82.4080844  57.5295510  88.0334762  77.1950331
  57.1859780  88.9236404  77.1189442  57.8974473  87.8436420  76.3319916
  45.5981361 100.3568292  70.0138933  46.4356583 100.7665301  69.7972641
  45.7759629  99.4167735  69.9839127  57.4945793  98.0243373  65.7022766
  56.9792417  98.7947978  65.9411153  57.2223102  97.3508509  66.3255828
  55.0792904  92.8693074  70.7608004  54.2234501  92.4799924  70.5813643
  55.4919856  92.9485035  69.9007790  56.6092051  90.4039417  75.1599564
  56.1056846  90.3669552  74.3467369  56.9022658  91.3132160  75.2196221
  52.8534937  90.4878147  74.1665746  53.7187934  90.2920956  73.8071635
  52.9212446  90.2588499  75.0935103  62.4680067 100.7775728  67.6375940
  61.6909510 100.4386887  67.1931102  63.1471548 100.7828351  66.9630905
  57.2832096  95.8970465  67.5282547  56.9782232  96.2116614  68.3792690
  58.2362538  95.9751885  67.5709880  55.7278528 102.0560689  69.1775501
  55.1999890 101.3213448  68.8648739  55.2266031 102.8335365  68.9315470
  60.7071374 100.2509709  74.2942548  60.0495049 100.9408970  74.3822676
  61.5111773 100.6406141  74.6376534  50.4597256  92.7180355  71.5382113
  51.0341008  92.4955536  70.8055306  51.0468238  92.7869049  72.2910714
  59.5176833  98.6054082  72.3446489  60.0308715  99.2384074  72.8468199
  60.1678057  98.0055277  71.9789849  50.7866843  94.7484816  65.5577998
  49.9504155  95.0859502  65.8787273  50.6471613  94.6133796  64.6205135
  52.7619924  89.5921604  70.2657182  52.1084336  89.2770621  69.6413797
  52.7200398  88.9697344  70.9917005  53.8731128  99.8740899  62.1810474
  52.9658190  99.6430152  62.3801623  54.3702160  99.0778518  62.3684456
  56.7799207 108.5838406  65.1007160  56.1060906 108.8870103  65.7092118
  57.1665029 109.3867486  64.7512617  55.9957664  96.0803537  74.5904830
  55.0780225  96.3018484  74.4326518  56.4117808  96.1549848  73.7316537
  56.7792712  97.4794953  69.7207510  57.5264531  97.9916350  69.4114632
  57.0484301  97.1579006  70.5811904  55.0519362  99.9753494  66.7034464
  54.1430581  99.6912526  66.8006934  55.0814446 100.3952572  65.8437771
  60.2838629 103.5860083  70.4725632  59.8300956 102.7450993  70.5290822
  59.6532596 104.2221482  70.8100412  59.2271549  94.5152069  71.7026299
  58.4894306  94.0029455  72.0336542  59.4798322  94.0752451  70.8909576
  58.7271568 105.4236580  71.4075450  59.0194543 105.9841637  70.6887816
  59.2370189 105.7165141  72.1628609  59.3283176  87.2928321  72.2968069
  59.6342053  86.4325685  72.0093984  60.0535781  87.8845941  72.0967063
  45.6207532  97.6959008  70.6849667  45.4231932  97.1028368  69.9600733
  45.0654196  97.3911218  71.4025605  53.6004256  97.5882114  72.8044260
  53.6552866  96.6355951  72.7286736  52.7895458  97.7441553  73.2885558
  54.7495450 101.5162237  64.0422543  54.3114880 100.7998096  63.5828180
  55.4905890 101.7438352  63.4807634  51.5396616  96.2059174  70.5634639
  50.7264481  96.5053345  70.9699831  52.0355610  95.8114863  71.2809121
  53.6905194 106.2016931  72.4968903  53.6481372 106.4277777  71.5677435
  54.6067893 105.9680306  72.6454704  57.1370827  96.6700998  79.3949532
  57.4920215  96.8972472  80.2543998  57.7842959  97.0019375  78.7726788
  62.8668564  99.7919434  70.0998861  62.7286463  99.9821030  69.1720051
  62.5104783 100.5538817  70.5566913  51.0310691  93.7777530  76.1795874
  51.6710070  93.6366289  75.4818837  50.1988221  93.4912043  75.8034476
  62.8937944 101.8595961  75.1110133  63.3274451 101.7671250  75.9593187
  63.6069525 101.8353462  74.4730149  51.8070994 103.0779960  72.2930866
  52.6011593 102.5830280  72.0913441  51.0962687 102.5497823  71.9298572
  56.6265839 105.4598055  76.6443234  56.6802861 106.0288992  77.4120949
  55.7580620 105.6299941  76.2797271  48.1153758  97.2223042  68.3690619
  47.1851346  97.1607497  68.5860581  48.2111230  96.6998994  67.5727260
  48.0339307  93.7477855  70.9568860  48.2946124  94.6623188  70.8478021
  48.8556479  93.2802297  71.1065473  49.5064232  95.1615612  78.1267685
  50.1787286  94.9532974  77.4780334  48.6794019  94.9637698  77.6872917
  63.7553494 101.9019662  77.6443018  63.9489384 102.8065473  77.8902293
  63.6554112 101.4427081  78.4781603  55.4089804  91.7877553  80.1433346
  54.7617719  92.4867502  80.0497822  56.1790820  92.2213697  80.5109594
  58.8168602 102.0526405  83.2183899  58.6654109 101.8236956  82.3013983
  58.8073282 103.0097006  83.2315244  55.5853939  99.6258318  78.2030165
  56.5145999  99.7769477  78.0299133  55.1644969  99.7142338  77.3478812
  54.3842270 103.6508982  75.9728703  54.2453356 103.2827766  76.8454641
  53.5956867 104.1656621  75.8012661  54.9790422 108.7518078  67.3154240
  55.1542178 108.2806122  68.1299862  54.2923210 109.3783845  67.5435500
  55.9347486 103.0290585  73.3617541  55.5997318 102.9891355  74.2575191
  55.4351431 102.3635301  72.8887951  49.9091730  98.4358215  78.8870122
  49.7711527  97.7038453  79.4881661  50.8196653  98.3467115  78.6054310
  58.8706677 100.3746619  63.6354601  58.2535848  99.6493447  63.5387653
  58.4023166 101.1355979  63.2921675  52.5374030  98.1478174  78.3753802
  53.2473649  97.5071366  78.3340420  52.4943338  98.3991069  79.2979982
  60.5260809 105.0845527  81.2960381  60.4673355 104.4004747  80.6290964
  60.9280327 105.8264517  80.8441007  51.2502964  95.1343392  80.1949441
  50.7140321  94.6834130  80.8471037  50.6619673  95.2689301  79.4519905
  49.5451508 111.9007441  74.0894100  49.7848106 112.5325965  74.7673118
  48.7020704 111.5495481  74.3759459  50.6605223  94.5932043  62.7575905
  49.7834689  94.4720844  62.3938151  51.1362976  93.8018122  62.5054793
  60.5278216 103.0485111  79.5274361  59.6404995 102.7111033  79.6500759
  61.0976767 102.3168142  79.7643126  42.1807363  99.3809203  72.8517412
  42.8678403  99.0670933  72.2638427  42.0255492 100.2850568  72.5784663
  46.9842085  94.2699400  77.2802436  46.9000274  93.6625069  76.5452846
  46.1624792  94.7608418  77.2811932  54.0579370 107.7086564  76.4935604
  53.9849541 108.5141535  77.0054908  53.6156763 107.9078529  75.6683625
  53.8469149 106.9458334  70.0038425  53.0636671 107.4880014  70.0976650
  54.5461894 107.4632313  70.4032666  57.1565799  92.7552963  72.6472631
  57.6534499  92.0022925  72.3273701  56.3852781  92.7917280  72.0815840
  65.0095557  98.4593329  74.2890922  64.9985433  99.3418044  73.9184855
  64.1412936  98.1064879  74.0945459  56.5178053 107.6073398  78.6493762
  57.2306025 108.2420862  78.5769664  56.0268082 107.7037264  77.8333764
  58.2395580 101.5124650  70.2211054  57.3051859 101.6326113  70.0515758
  58.4172248 100.6097117  69.9571064  53.7400768  94.8970346  72.3744315
  53.3698556  94.3441386  73.0625221  54.2359860  94.2928480  71.8219315
  61.6268131  97.3541970  70.7561088  62.0928584  98.1869961  70.6821391
  62.0775632  96.8886951  71.4606347  51.5689967 105.3567841  79.4699333
  52.2699426 105.9904324  79.6228727  51.0985082 105.6982573  78.7094972
  59.6944362 103.6985791  67.7547240  59.9704206 103.5842385  68.6641114
  58.8248861 103.3003276  67.7159413  59.5984794  89.7222557  74.7951990
  58.6847874  89.9526783  74.9634196  60.0277896  89.8061001  75.6466022
  59.3691253  97.9112449  77.2951884  58.7162703  98.1588356  76.6404336
  59.7471632  97.0976587  76.9614361  56.3298426 107.9472142  71.3980054
  56.5120821 107.1293798  71.8607806  57.1531412 108.1639834  70.9604944
  56.6640592 106.8740327  68.6595102  57.1928358 106.3632781  68.0465264
  56.9268812 106.5582857  69.5240635  55.4178826  98.6532260  83.7817921
  54.7419463  98.5526389  84.4520296  56.2406459  98.4971473  84.2453918
  47.1657685 104.8904196  76.4030436  47.7511121 104.1447884  76.5358340
  46.9682523 105.2008153  77.2867100  50.0196340 107.9255444  71.4192878
  49.3506715 108.4101571  70.9356918  49.8809210 108.1724664  72.3336257
  41.7575339  97.4609796  75.1234879  41.7959439  96.9273387  75.9171997
  41.2515632  96.9345002  74.5045856  54.1601608 109.9599187  78.0175537
  54.7119917 110.1230809  78.7824622  54.5007802 110.5503625  77.3455561
  49.1366102  92.3074337  78.6197421  49.2007428  93.1689168  78.2074819
  49.0733222  91.6948339  77.8869780  48.6118374  94.3797469  82.2670456
  49.2390413  93.9974547  82.8807980  47.7546293  94.1611671  82.6326148
  59.0112483 104.7860445  83.8724191  59.5552387 105.3990403  83.3779146
  58.4299328 105.3440023  84.3891204  45.3883917  96.1873899  68.1988810
  45.6837358  95.2784577  68.1455864  44.4871953  96.1661638  67.8769813
  57.2969996 107.9081163  75.0039219  57.1721135 107.1070902  74.4950164
  57.9549087 108.4027356  74.5153189  48.9178164  94.2629895  74.1816359
  48.1964750  94.8765863  74.0423832  49.7071420  94.7987660  74.1033005
  59.3604904 105.7090183  76.6318769  58.4135240 105.5895534  76.5597096
  59.7087677 104.8212681  76.7145030  51.7204478  91.5984322  80.4557011
  52.2438879  91.8446618  81.2183320  51.5016811  92.4304356  80.0360148
  47.1171759  93.8687996  68.3228136  46.7884465  92.9885375  68.1403242
  47.4711129  93.8135665  69.2104525  56.3651337 105.5042899  72.8323121
  56.2176300 104.5759606  73.0130691  57.1904831 105.5262990  72.3480196
  50.2313582  94.1560966  68.6903613  50.5709654  94.6846887  67.9682222
  50.6785702  94.4941372  69.4662180  59.9685459 106.3271458  73.9187994
  60.8932007 106.1214319  73.7812445  59.8000763 106.0787859  74.8277335
  52.9257023  92.5398017  78.1406681  52.5853843  91.7405830  78.5427361
  52.2196029  92.8399728  77.5683515  53.5773494  89.6247329  76.5934004
  54.3999564  89.1507807  76.4712895  53.8211558  90.4037813  77.0932691
  52.2181729  92.6535588  66.8896906  52.9390091  93.0316840  66.3860623
  51.5947033  93.3724464  66.9931884  56.3612852  93.3580737  67.8255238
  56.5776466  94.2405374  67.5244067  55.8806919  92.9666950  67.0960880
  51.1012073  96.3166450  74.4025983  50.9556654  96.6306753  75.2950264
  50.6237277  96.9351350  73.8496882  52.9608456  93.3068998  74.4506873
  52.9470025  92.4110091  74.1139170  53.6780884  93.3139661  75.0845159
  54.8134587  93.7406338  76.4960000  54.5552365  94.6623409  76.4944330
  54.2819627  93.3436772  77.1860464  59.7580775 106.8457125  69.2750085
  59.9317653 106.2803548  68.5223938  60.2509667 107.6458020  69.0929575
  45.5757735  98.8571794  77.3413644  45.0311203  99.6331602  77.4733918
  46.4537085  99.2042599  77.1832766  52.3645352  92.1883378  69.7194443
  52.4861263  91.2600024  69.9185330  52.0747394  92.2022064  68.8072758
  55.2336542  89.8738288  72.8561162  55.2558239  89.9377622  71.9013142
  55.6504601  89.0342797  73.0501669  65.6120167  99.6093548  70.8940385
  66.0551313  98.8600873  70.4959508  64.7346677  99.6003684  70.5114117
  60.7455948 106.1623889  66.3746984  61.4406853 106.7830582  66.5934298
  61.0879098 105.3119241  66.6499361  46.3623757  97.9841690  80.2343801
  45.6205493  98.1324326  80.8208431  46.0416501  98.2449956  79.3710550
  62.6447371 103.6123595  67.9034314  63.1698695 103.9510868  67.1783634
  62.5569724 102.6770610  67.7197449  54.3067420 107.5257669  80.0324191
  54.6154546 107.2806815  80.9046891  55.1042902 107.7304307  79.5443061
  54.3288032 109.6795578  72.2629568  53.8893022 109.1871957  72.9562424
  55.0796149 109.1368546  72.0221643  46.8080371 105.8707119  72.2654196
  47.6338391 105.5710891  71.8852839  46.4574423 105.1014742  72.7143984
  51.7761904 105.2233587  74.3351869  51.1541913 104.5604292  74.0354097
  52.4466771 105.2494719  73.6525517  45.0088976 103.7893446  73.2243129
  44.1720884 103.3615620  73.0427130  44.9812621 103.9825889  74.1613920
  51.8486431  93.7015375  83.9284375  51.8974587  94.5777498  83.5462145
  52.3908946  93.1592768  83.3556018  62.3341277 104.2456499  83.2085512
  61.5436821 104.2280637  82.6690012  62.0974632 104.7844792  83.9634549
  62.4539152 101.0948965  80.5218241  62.5037157 100.9298972  81.4633764
  62.3453076 100.2276224  80.1316122  51.3375411 103.7737511  67.8110330
  51.4863531 104.4572975  67.1577003  52.1441854 103.7542601  68.3259786
  59.7442915  97.0779893  81.8377548  60.6452777  96.9386358  81.5461545
  59.8190889  97.2434348  82.7775725  54.0785720  94.4546748  80.6830734
  53.2089029  94.7480314  80.4113322  54.3145200  95.0387193  81.4037998
  63.9557349 103.5145907  80.7660262  63.6642157 103.8775887  81.6023723
  63.3429480 102.8012915  80.5873594  65.1553031 101.0798786  73.2862833
  65.9899923 101.5188590  73.4500393  65.2912160 100.6037440  72.4671078
  62.2044537  98.6378521  79.2340320  62.6798659  98.8306167  78.4259172
  61.2810103  98.6937707  78.9883704  49.0928044  99.8002688  68.8171399
  48.8474086  98.8965018  69.0151609  49.2623958  99.8019839  67.8750877
  56.7824754  90.6726365  78.1996154  57.3006698  91.4087392  77.8742643
  56.4279887  90.9790358  79.0342913  48.3623691  95.5331046  66.3157560
  47.6692936  95.6075401  65.6597596  48.1175443  94.7691390  66.8379077
  57.0337348  87.0926647  73.7197051  57.3139102  86.4249836  74.3457477
  57.8187955  87.2855743  73.2071715  54.8370816 106.2685641  65.2822077
  54.2644784 106.8875828  64.8292549  55.4103610 106.8185003  65.8161999
  60.9046206  95.5144281  77.4668626  61.8563629  95.6142379  77.4880850
  60.7349657  94.7222550  77.9766710  58.9260586  92.5999864  77.6528027
  58.3310518  92.8804877  76.9574516  58.6410282  93.0893765  78.4244768
  58.0568076 106.5522791  66.4130659  58.9898749 106.4868353  66.6163535
  57.9691289 107.3879058  65.9545192  60.6856093 105.8688662  63.3734607
  60.6069724 105.5348525  64.2670365  61.5065760 106.3610430  63.3726079
  63.3834284  98.7350401  76.5810926  63.3510604  97.7966402  76.7670609
  63.9934908  98.8134438  75.8476751  55.2217615  97.6046454  62.6238130
  56.1676720  97.4752662  62.6926548  54.8431860  96.8661116  63.1007558
  63.5328773  95.5261444  76.6269209  63.0167821  94.7419901  76.4399138
  64.4168721  95.1980161  76.7915728  61.1939499  89.2702460  72.5865022
  60.9964321  88.9617548  73.4708353  61.8039205  89.9964099  72.7162951
  69.2010834  99.7966408  75.7216962  69.9314222  99.5351696  76.2824666
  68.5917779  99.0595130  75.7619030  67.2826131  97.9374270  76.3191414
  66.5559295  97.8030235  75.7107905  66.8673418  98.2451099  77.1248132
  55.1056307 101.6564200  84.0838787  56.0259317 101.8342799  84.2778833
  55.0705891 100.7120245  83.9318486  53.4060532  95.5296430  62.5593015
  52.4991987  95.2329543  62.6355729  53.6836513  95.2326248  61.6927301
  44.3238472  96.8502794  73.0092061  44.0041257  95.9968102  72.7166435
  43.7771901  97.0651372  73.7650029  48.1018380  99.5665235  76.7261568
  48.3204390 100.4982343  76.7449602  48.5144154  99.2073209  77.5116372
  55.0222598  90.0733320  68.7137256  54.2123326  89.7280405  69.0892502
  55.7107015  89.7640864  69.3024868  56.9513146  89.1511367  70.3361553
  57.5044185  89.5706820  70.9951576  57.1883232  88.2247115  70.3784509
  52.9746245  95.1398440  86.1164317  52.8742972  96.0892797  86.0476408
  52.7567787  94.8116679  85.2440387  52.1759317  92.3883366  62.7004994
  53.0378481  92.7138264  62.9600811  52.3609661  91.6014861  62.1878060
  44.1926732 100.4705705  74.9785183  43.4990204 100.0559658  74.4655137
  44.9399723 100.5126242  74.3818602  60.3291953  91.2611892  69.8440217
  59.7490622  91.9196696  69.4618270  60.0627886  90.4389237  69.4327635
  58.7795520  90.6616950  72.0461537  59.2795298  90.7733484  71.2375856
  59.4231127  90.3578003  72.6862346  52.8377515  98.5695579  84.9329378
  52.3544597  99.3695939  85.1393267  52.9238454  98.5803524  83.9796822
  46.1063475 100.4023959  72.8551198  46.0834163 100.5011646  71.9033081
  46.4164111 101.2489110  73.1768364  48.7650853 102.4600114  76.9697812
  49.7194106 102.4284056  76.9027744  48.5663376 101.9990738  77.7848038
  49.3550235 101.0301230  79.5368610  50.1743124 101.5245309  79.5603447
  49.6287043 100.1133198  79.5086177  59.1116831  93.4211982  68.8996565
  58.2242686  93.7061633  68.6816760  59.5270820  93.2605746  68.0523842
  62.4631367  93.4458503  72.6150905  63.2391757  93.9354956  72.8875521
  61.7379502  93.8716558  73.0722774  64.9003926  94.1586123  73.6724845
  65.4948417  93.9181859  72.9618153  64.9730510  93.4393253  74.2998382
  47.1201082 108.0019733  73.9868010  46.9855550 107.2420134  73.4206008
  46.7033144 108.7260633  73.5196799  58.2560045 103.1856657  62.9944585
  58.9595895 103.3906660  63.6102241  57.5322693 103.7533419  63.2593669
  59.0857855  98.9366518  69.1146856  59.0293056  99.3935070  68.2754488
  59.6386197  98.1757203  68.9369698  62.8962661  94.7256250  69.9396975
  62.6399595  94.3252886  70.7705183  62.2715529  95.4400044  69.8147114
  67.2074999  97.4652323  72.4468266  66.6474557  97.5345513  73.2199828
  66.6018502  97.2893308  71.7267763  50.2770208 108.8989051  74.1986453
  50.1602592 109.8434483  74.0965143  49.4562654 108.5962612  74.5872252
  60.1646742 103.6239186  65.0443045  60.9992346 103.1920385  64.8620520
  60.0031085 103.4521200  65.9719940  59.8192634 100.1271300  66.4099385
  59.7641438  99.9615571  65.4687829  59.1938690 100.8347332  66.5661574
  44.6085149  95.3639364  80.2360807  45.2544013  94.8538318  80.7248032
  44.4002300  96.1008046  80.8104232  57.1338541 102.4320211  85.7352947
  58.0029701 102.6060864  85.3739582  56.6545293 103.2514628  85.6128677
  53.1288760  89.6279409  65.9884703  53.1167430  90.5721248  66.1452974
  54.0212182  89.4449554  65.6944164  51.3024722 109.5517312  77.4142381
  52.2051968 109.5840923  77.7308876  51.0762092 108.6217763  77.4288717
  53.0578324 108.3048299  74.0752460  52.1073955 108.3050161  73.9616832
  53.3610810 107.5581034  73.5588494  56.9440879  86.2222185  70.2430640
  56.1773275  85.6680672  70.3887322  57.3551584  86.2944054  71.1044792
  48.9482640  92.5106981  84.3335821  49.8114102  92.1543786  84.5439146
  48.3748051  92.1720876  85.0211225  68.7931017 114.1408837  75.1398222
  69.4309427 114.0215585  74.4361562  68.6751860 115.0889681  75.1986174
  65.6020723 114.0936265  75.0759747  65.2639235 113.9777330  74.1880282
  66.4710492 113.6927431  75.0560753  61.4607539 115.9471742  71.0656638
  60.8972404 115.8561679  70.2972926  61.3459934 115.1271646  71.5459130
  66.0840506 115.2471117  81.0345952  66.0729147 114.8523915  80.1626456
  66.2461146 114.5137190  81.6279724  59.0071971 117.4422933  73.9040858
  59.7993263 117.1013758  73.4887158  59.2468621 117.5517909  74.8243012
  67.0407098 119.6142710  66.3771103  66.3895078 120.1996790  65.9905117
  67.8351461 120.1448904  66.4366140  60.9662725 116.7031847  66.7758237
  61.7393601 116.1560834  66.6371113  61.3188124 117.5676096  66.9872698
  62.8047768 118.0308229  79.9825136  62.5137634 118.9353860  79.8671803
  63.4404752 118.0724757  80.6969206  63.7303974 115.4085077  76.5726496
  64.3267547 115.1841100  75.8583459  63.7878946 114.6669823  77.1751944
  63.3029003 112.8624513  64.4076687  63.5554524 112.3406034  63.6460150
  62.3653562 112.6990658  64.5103371  68.3472286 111.8660291  72.2151430
  69.1335375 111.4479714  71.8641847  68.6110990 112.7706383  72.3833079
  68.5182363 117.3033141  66.9140087  67.8828196 117.3767768  67.6260992
  68.1879769 117.8926740  66.2359166  73.7480713 111.8035524  73.1184409
  74.4805885 111.2334741  73.3522238  72.9920068 111.4157125  73.5590914
  63.0225292 114.7652619  66.6101062  62.9061550 114.0897522  67.2782146
  63.1327551 114.2784993  65.7933215  65.3656833 114.2262766  70.3147751
  65.0015040 113.6993387  71.0260673  66.2223948 113.8361235  70.1414237
  71.2706133 105.5157098  77.5779017  70.9389458 106.3852509  77.3540232
  70.6751747 105.1993382  78.2573048  65.0062319 109.2552666  65.3109100
  65.1736722 110.1232902  65.6779571  64.8159489 109.4179947  64.3870389
  67.7637653 117.7169644  76.9774930  67.4638376 118.6194683  76.8690737
  67.4188712 117.4501828  77.8296083  61.2150134 114.1683441  73.0111634
  60.2900631 114.0359655  73.2189326  61.4634547 114.9477661  73.5081577
  71.1634796 110.2352185  74.6572367  70.2551674 110.1667593  74.3631128
  71.1122392 110.7124130  75.4854193  64.9851540 111.7110323  66.2955767
  64.8651166 112.1567374  67.1341247  64.2904129 112.0595641  65.7369305
  58.5758945 113.8116715  73.8455424  58.7051326 114.0651194  74.7594835
  57.8956396 114.4044423  73.5260079  65.2375662 111.6541830  82.6007265
  64.4608996 112.2135750  82.5910129  65.8766225 112.1398613  83.1222135
  73.0296443 108.4368623  76.4350241  72.3870823 108.7301156  75.7890036
  72.5251371 108.3221543  77.2403438  70.6836607 112.1831796  67.1236101
  71.5954463 112.4159183  66.9483798  70.1746254 112.7668840  66.5611179
  63.4922035 114.4627284  82.1625232  64.2336719 115.0012328  81.8860055
  62.7859020 115.0893572  82.3196783  68.9677374 116.6056424  80.7597393
  69.3760730 116.1638835  80.0152025  68.2454636 116.0309052  81.0131586
  65.3208444 111.5429031  78.1330950  66.1669639 111.9668444  78.2765599
  65.2607082 110.8862655  78.8269513  69.2906189 117.1657615  74.5149682
  68.6615051 117.3303329  73.8125750  68.9031851 117.5799224  75.2860646
  73.1695421 118.1012053  71.8694046  72.4846459 118.4810954  71.3191079
  73.2539270 118.7107379  72.6025994  68.4707890 109.2033399  79.7912124
  68.2268821 109.9575460  79.2546399  68.7467820 109.5818747  80.6259371
  70.4246352 115.7472012  78.4689389  70.6363248 116.3903771  77.7923770
  70.3776101 114.9134328  78.0011319  68.0272581 108.3589832  75.3725961
  67.1657060 108.6571086  75.6642699  68.0535016 108.5760231  74.4406994
  64.8434151 116.9032023  71.7799767  65.3072496 117.1819726  70.9904390
  64.5790949 116.0015467  71.5972858  61.7358232 116.4503504  74.7179530
  62.3059589 116.8790773  74.0797015  62.3266344 116.1686089  75.4163716
  63.7803037 113.0255175  68.5889332  64.4827080 113.4776219  69.0563259
  63.4483665 112.3838994  69.2169225  62.2283398 111.6166932  82.9640542
  61.5982059 112.2983213  83.1975938  62.1219486 111.5050013  82.0193680
  57.5228371 111.2838728  73.8906466  56.7327425 111.5396256  73.4146576
  58.0139618 112.0987066  73.9958506  71.5392180 118.6243967  76.6411747
  72.3609624 118.2224154  76.3594428  71.5354583 118.5212201  77.5927862
  59.4743116 111.6483307  70.8489943  58.6774279 111.7602001  71.3673438
  59.2468708 111.9869959  69.9830833  65.3048784 118.1728010  78.7972457
  65.3693216 118.6348418  79.6330629  64.5959708 117.5425375  78.9254767
  55.8066074 111.5369218  76.3221457  56.0574112 112.4216228  76.5879033
  56.3425622 111.3573820  75.5496548  79.6298173 114.9682715  72.9896718
  78.8761882 114.3990114  72.8340723  79.7645715 114.9345380  73.9367353
  65.0196801 119.8396118  68.6651437  64.8842476 120.6847654  69.0936285
  65.5606614 120.0415395  67.9017371  61.5064141 105.9187698  85.3265793
  61.1131087 105.3653896  86.0013437  62.3230281 106.2298276  85.7172310
  58.4726199 117.3571556  69.2379363  58.9850719 118.1514806  69.3884927
  59.1248912 116.6597846  69.1712964  60.2821083 120.4737312  71.3202116
  60.4587712 121.3955277  71.1323100  61.0777917 120.1595731  71.7496496
  64.4232102 107.3345577  82.9186049  65.1641815 107.9352730  82.8390512
  64.6550025 106.5923215  82.3604092  59.5673440 112.5201944  81.1964279
  59.4526955 111.6187201  81.4971378  58.7117958 112.7665641  80.8449095
  66.6465278 120.4619684  82.7951780  66.2029132 119.6756063  82.4772684
  67.3082491 120.6498835  82.1295670  61.4052399 121.9915486  77.3212458
  61.9559824 121.8632549  76.5489452  60.5663875 122.2910375  76.9707351
  68.7446516 120.7422484  80.8233181  68.7264991 121.5631365  80.3313450
  69.6666436 120.6176559  81.0483322  65.2019570 118.2566614  81.6656689
  65.7347907 117.4954902  81.4355997  64.6733651 117.9640266  82.4080844
  68.3689265 103.3626680  77.1950331  68.0253534 104.2528321  77.1189442
  68.7368228 103.1728337  76.3319916  56.4375116 115.6860210  70.0138933
  57.2750338 116.0957218  69.7972641  56.6153383 114.7459652  69.9839127
  68.3339548 113.3535291  65.7022766  67.8186171 114.1239895  65.9411153
  68.0616856 112.6800427  66.3255828  65.9186659 108.1984992  70.7608004
  65.0628255 107.8091842  70.5813643  66.3313610 108.2776952  69.9007790
  67.4485805 105.7331335  75.1599564  66.9450601 105.6961470  74.3467369
  67.7416412 106.6424078  75.2196221  63.6928691 105.8170065  74.1665746
  64.5581688 105.6212873  73.8071635  63.7606200 105.5880416  75.0935103
  73.3073822 116.1067645  67.6375940  72.5303265 115.7678805  67.1931102
  73.9865303 116.1120269  66.9630905  68.1225851 111.2262383  67.5282547
  67.8175986 111.5408532  68.3792690  69.0756293 111.3043803  67.5709880
  66.5672283 117.3852606  69.1775501  66.0393644 116.6505366  68.8648739
  66.0659785 118.1627283  68.9315470  71.5465129 115.5801627  74.2942548
  70.8888803 116.2700888  74.3822676  72.3505528 115.9698059  74.6376534
  61.2991010 108.0472272  71.5382113  61.8734762 107.8247454  70.8055306
  61.8861993 108.1160967  72.2910714  70.3570588 113.9345999  72.3446489
  70.8702469 114.5675991  72.8468199  71.0071811 113.3347195  71.9789849
  61.6260597 110.0776734  65.5577998  60.7897910 110.4151420  65.8787273
  61.4865367 109.9425713  64.6205135  63.6013678 104.9213521  70.2657182
  62.9478090 104.6062539  69.6413797  63.5594152 104.2989262  70.9917005
  64.7124883 115.2032816  62.1810474  63.8051945 114.9722070  62.3801623
  65.2095915 114.4070436  62.3684456  67.6192962 123.9130324  65.1007160
  66.9454661 124.2162020  65.7092118  68.0058784 124.7159404  64.7512617
  66.8351418 111.4095455  74.5904830  65.9173980 111.6310402  74.4326518
  67.2511562 111.4841765  73.7316537  67.6186466 112.8086871  69.7207510
  68.3658285 113.3208268  69.4114632  67.8878056 112.4870923  70.5811904
  65.8913116 115.3045411  66.7034464  64.9824336 115.0204444  66.8006934
  65.9208200 115.7244490  65.8437771  71.1232384 118.9152001  70.4725632
  70.6694711 118.0742911  70.5290822  70.4926350 119.5513399  70.8100412
  70.0665303 109.8443987  71.7026299  69.3288060 109.3321373  72.0336542
  70.3192077 109.4044368  70.8909576  69.5665323 120.7528498  71.4075450
  69.8588297 121.3133555  70.6887816  70.0763944 121.0457059  72.1628609
  70.1676931 102.6220239  72.2968069  70.4735807 101.7617602  72.0093984
  70.8929535 103.2137859  72.0967063  56.4601287 113.0250925  70.6849667
  56.2625687 112.4320286  69.9600733  55.9047951 112.7203136  71.4025605
  64.4398010 112.9174032  72.8044260  64.4946620 111.9647868  72.7286736
  63.6289212 113.0733471  73.2885558  65.5889204 116.8454155  64.0422543
  65.1508634 116.1290014  63.5828180  66.3299645 117.0730270  63.4807634
  62.3790370 111.5351092  70.5634639  61.5658236 111.8345262  70.9699831
  62.8749364 111.1406780  71.2809121  64.5298948 121.5308849  72.4968903
  64.4875127 121.7569695  71.5677435  65.4461647 121.2972223  72.6454704
  67.9764582 111.9992916  79.3949532  68.3313970 112.2264389  80.2543998
  68.6236713 112.3311293  78.7726788  73.7062319 115.1211352  70.0998861
  73.5680217 115.3112948  69.1720051  73.3498538 115.8830735  70.5566913
  61.8704445 109.1069447  76.1795874  62.5103824 108.9658206  75.4818837
  61.0381976 108.8203961  75.8034476  73.7331698 117.1887879  75.1110133
  74.1668205 117.0963168  75.9593187  74.4463279 117.1645380  74.4730149
  62.6464749 118.4071878  72.2930866  63.4405347 117.9122198  72.0913441
  61.9356441 117.8789741  71.9298572  67.4659593 120.7889973  76.6443234
  67.5196616 121.3580909  77.4120949  66.5974375 120.9591858  76.2797271
  58.9547512 112.5514959  68.3690619  58.0245100 112.4899415  68.5860581
  59.0504984 112.0290912  67.5727260  58.8733061 109.0769772  70.9568860
  59.1339879 109.9915105  70.8478021  59.6950234 108.6094215  71.1065473
  60.3457987 110.4907529  78.1267685  61.0181040 110.2824891  77.4780334
  59.5187773 110.2929615  77.6872917  74.5947248 117.2311580  77.6443018
  74.7883138 118.1357390  77.8902293  74.4947866 116.7718999  78.4781603
  66.2483559 107.1169470  80.1433346  65.6011474 107.8159420  80.0497822
  67.0184574 107.5505614  80.5109594  69.6562357 117.3818322  83.2183899
  69.5047863 117.1528874  82.3013983  69.6467036 118.3388924  83.2315244
  66.4247693 114.9550235  78.2030165  67.3539753 115.1061395  78.0299133
  66.0038723 115.0434256  77.3478812  65.2236025 118.9800900  75.9728703
  65.0847111 118.6119684  76.8454641  64.4350621 119.4948539  75.8012661
  65.8184177 124.0809996  67.3154240  65.9935933 123.6098039  68.1299862
  65.1316965 124.7075762  67.5435500  66.7741240 118.3582502  73.3617541
  66.4391073 118.3183272  74.2575191  66.2745186 117.6927218  72.8887951
  60.7485484 113.7650132  78.8870122  60.6105282 113.0330371  79.4881661
  61.6590408 113.6759032  78.6054310  69.7100432 115.7038537  63.6354601
  69.0929602 114.9785365  63.5387653  69.2416920 116.4647897  63.2921675
  63.3767785 113.4770092  78.3753802  64.0867403 112.8363284  78.3340420
  63.3337093 113.7282986  79.2979982  71.3654563 120.4137445  81.2960381
  71.3067110 119.7296665  80.6290964  71.7674082 121.1556435  80.8441007
  62.0896719 110.4635310  80.1949441  61.5534076 110.0126048  80.8471037
  61.5013427 110.5981218  79.4519905  61.4998978 109.9223961  62.7575905
  60.6228444 109.8012762  62.3938151  61.9756731 109.1310039  62.5054793
  71.3671971 118.3777029  79.5274361  70.4798749 118.0402951  79.6500759
  71.9370522 117.6460060  79.7643126  53.0201118 114.7101121  72.8517412
  53.7072158 114.3962851  72.2638427  52.8649246 115.6142485  72.5784663
  57.8235840 109.5991317  77.2802436  57.7394029 108.9916987  76.5452846
  57.0018546 110.0900336  77.2811932  64.8973124 123.0378481  76.4935604
  64.8243296 123.8433453  77.0054908  64.4550517 123.2370447  75.6683625
  64.6862904 122.2750251  70.0038425  63.9030426 122.8171931  70.0976650
  65.3855649 122.7924231  70.4032666  67.9959554 108.0844881  72.6472631
  68.4928253 107.3314843  72.3273701  67.2246535 108.1209197  72.0815840
  75.8489311 113.7885246  74.2890922  75.8379187 114.6709962  73.9184855
  74.9806691 113.4356797  74.0945459  67.3571808 122.9365315  78.6493762
  68.0699780 123.5712780  78.5769664  66.8661836 123.0329181  77.8333764
  69.0789334 116.8416568  70.2211054  68.1445613 116.9618030  70.0515758
  69.2566003 115.9389035  69.9571064  64.5794523 110.2262264  72.3744315
  64.2092310 109.6733304  73.0625221  65.0753615 109.6220397  71.8219315
  72.4661886 112.6833887  70.7561088  72.9322338 113.5161879  70.6821391
  72.9169386 112.2178869  71.4606347  62.4083721 120.6859759  79.4699333
  63.1093181 121.3196242  79.6228727  61.9378836 121.0274490  78.7094972
  70.5338117 119.0277709  67.7547240  70.8097961 118.9134303  68.6641114
  69.6642616 118.6295193  67.7159413  70.4378549 105.0514474  74.7951990
  69.5241628 105.2818701  74.9634196  70.8671650 105.1352918  75.6466022
  70.2085007 113.2404366  77.2951884  69.5556457 113.4880274  76.6404336
  70.5865387 112.4268504  76.9614361  67.1692181 123.2764059  71.3980054
  67.3514575 122.4585715  71.8607806  67.9925167 123.4931752  70.9604944
  67.5034346 122.2032245  68.6595102  68.0322113 121.6924699  68.0465264
  67.7662566 121.8874775  69.5240635  66.2572580 113.9824177  83.7817921
  65.5813217 113.8818307  84.4520296  67.0800214 113.8263391  84.2453918
  58.0051439 120.2196114  76.4030436  58.5904876 119.4739802  76.5358340
  57.8076278 120.5300071  77.2867100  60.8590094 123.2547361  71.4192878
  60.1900470 123.7393489  70.9356918  60.7202964 123.5016582  72.3336257
  52.5969094 112.7901714  75.1234879  52.6353193 112.2565305  75.9171997
  52.0909387 112.2636920  74.5045856  64.9995363 125.2891105  78.0175537
  65.5513671 125.4522726  78.7824622  65.3401556 125.8795543  77.3455561
  59.9759856 107.6366255  78.6197421  60.0401183 108.4981085  78.2074819
  59.9126976 107.0240256  77.8869780  59.4512129 109.7089387  82.2670456
  60.0784168 109.3266464  82.8807980  58.5940048 109.4903589  82.6326148
  69.8506237 120.1152362  83.8724191  70.3946141 120.7282321  83.3779146
  69.2693082 120.6731941  84.3891204  56.2277671 111.5165816  68.1988810
  56.5231113 110.6076495  68.1455864  55.3265707 111.4953556  67.8769813
  68.1363750 123.2373080  75.0039219  68.0114890 122.4362820  74.4950164
  68.7942841 123.7319274  74.5153189  59.7571918 109.5921813  74.1816359
  59.0358504 110.2057780  74.0423832  60.5465174 110.1279578  74.1033005
  70.1998659 121.0382100  76.6318769  69.2528994 120.9187452  76.5597096
  70.5481432 120.1504598  76.7145030  62.5598232 106.9276239  80.4557011
  63.0832634 107.1738536  81.2183320  62.3410565 107.7596274  80.0360148
  57.9565513 109.1979914  68.3228136  57.6278219 108.3177293  68.1403242
  58.3104884 109.1427583  69.2104525  67.2045092 120.8334817  72.8323121
  67.0570054 119.9051524  73.0130691  68.0298585 120.8554907  72.3480196
  61.0707336 109.4852884  68.6903613  61.4103409 110.0138805  67.9682222
  61.5179457 109.8233290  69.4662180  70.8079214 121.6563375  73.9187994
  71.7325761 121.4506237  73.7812445  70.6394517 121.4079776  74.8277335
  63.7650777 107.8689934  78.1406681  63.4247597 107.0697747  78.5427361
  63.0589783 108.1691645  77.5683515  64.4167249 104.9539247  76.5934004
  65.2393318 104.4799725  76.4712895  64.6605312 105.7329731  77.0932691
  63.0575483 107.9827505  66.8896906  63.7783846 108.3608758  66.3860623
  62.4340787 108.7016382  66.9931884  67.2006606 108.6872654  67.8255238
  67.4170221 109.5697292  67.5244067  66.7200673 108.2958868  67.0960880
  61.9405828 111.6458367  74.4025983  61.7950408 111.9598670  75.2950264
  61.4631031 112.2643268  73.8496882  63.8002211 108.6360915  74.4506873
  63.7863779 107.7402009  74.1139170  64.5174639 108.6431579  75.0845159
  65.6528341 109.0698256  76.4960000  65.3946119 109.9915326  76.4944330
  65.1213382 108.6728690  77.1860464  70.5974530 122.1749043  69.2750085
  70.7711408 121.6095465  68.5223938  71.0903421 122.9749938  69.0929575
  56.4151490 114.1863712  77.3413644  55.8704958 114.9623520  77.4733918
  57.2930840 114.5334516  77.1832766  63.2039106 107.5175296  69.7194443
  63.3255018 106.5891942  69.9185330  62.9141149 107.5313982  68.8072758
  66.0730297 105.2030206  72.8561162  66.0951994 105.2669539  71.9013142
  66.4898356 104.3634715  73.0501669  76.4513921 114.9385466  70.8940385
  76.8945067 114.1892791  70.4959508  75.5740431 114.9295602  70.5114117
  71.5849702 121.4915807  66.3746984  72.2800607 122.1122500  66.5934298
  71.9272853 120.6411158  66.6499361  57.2017512 113.3133608  80.2343801
  56.4599248 113.4616243  80.8208431  56.8810256 113.5741874  79.3710550
  73.4841126 118.9415513  67.9034314  74.0092450 119.2802785  67.1783634
  73.3963478 118.0062528  67.7197449  65.1461174 122.8549586  80.0324191
  65.4548301 122.6098733  80.9046891  65.9436656 123.0596225  79.5443061
  65.1681786 125.0087496  72.2629568  64.7286777 124.5163875  72.9562424
  65.9189903 124.4660464  72.0221643  57.6474125 121.1999037  72.2654196
  58.4732145 120.9002809  71.8852839  57.2968177 120.4306659  72.7143984
  62.6155658 120.5525505  74.3351869  61.9935668 119.8896210  74.0354097
  63.2860525 120.5786637  73.6525517  55.8482730 119.1185363  73.2243129
  55.0114639 118.6907538  73.0427130  55.8206376 119.3117807  74.1613920
  62.6880186 109.0307293  83.9284375  62.7368341 109.9069416  83.5462145
  63.2302700 108.4884686  83.3556018  73.1735032 119.5748416  83.2085512
  72.3830575 119.5572555  82.6690012  72.9368386 120.1136710  83.9634549
  73.2932907 116.4240883  80.5218241  73.3430912 116.2590890  81.4633764
  73.1846830 115.5568142  80.1316122  62.1769165 119.1029428  67.8110330
  62.3257286 119.7864893  67.1577003  62.9835609 119.0834518  68.3259786
  70.5836669 112.4071811  81.8377548  71.4846532 112.2678276  81.5461545
  70.6584644 112.5726266  82.7775725  64.9179474 109.7838665  80.6830734
  64.0482784 110.0772232  80.4113322  65.1538955 110.3679110  81.4037998
  74.7951104 118.8437824  80.7660262  74.5035912 119.2067805  81.6023723
  74.1823235 118.1304832  80.5873594  75.9946786 116.4090704  73.2862833
  76.8293677 116.8480508  73.4500393  76.1305915 115.9329357  72.4671078
  73.0438292 113.9670439  79.2340320  73.5192413 114.1598085  78.4259172
  72.1203857 114.0229625  78.9883704  59.9321798 115.1294606  68.8171399
  59.6867840 114.2256936  69.0151609  60.1017713 115.1311756  67.8750877
  67.6218508 106.0018282  78.1996154  68.1400452 106.7379309  77.8742643
  67.2673641 106.3082276  79.0342913  59.2017446 110.8622964  66.3157560
  58.5086691 110.9367319  65.6597596  58.9569198 110.0983307  66.8379077
  67.8731102 102.4218565  73.7197051  68.1532856 101.7541754  74.3457477
  68.6581709 102.6147661  73.2071715  65.6764571 121.5977559  65.2822077
  65.1038538 122.2167746  64.8292549  66.2497365 122.1476921  65.8161999
  71.7439961 110.8436199  77.4668626  72.6957384 110.9434297  77.4880850
  71.5743411 110.0514467  77.9766710  69.7654340 107.9291782  77.6528027
  69.1704272 108.2096795  76.9574516  69.4804037 108.4185683  78.4244768
  68.8961831 121.8814709  66.4130659  69.8292504 121.8160271  66.6163535
  68.8085044 122.7170976  65.9545192  71.5249847 121.1980579  63.3734607
  71.4463479 120.8640443  64.2670365  72.3459514 121.6902347  63.3726079
  74.2228039 114.0642319  76.5810926  74.1904359 113.1258319  76.7670609
  74.8328662 114.1426355  75.8476751  66.0611369 112.9338372  62.6238130
  67.0070474 112.8044580  62.6926548  65.6825614 112.1953033  63.1007558
  74.3722527 110.8553362  76.6269209  73.8561576 110.0711819  76.4399138
  75.2562476 110.5272079  76.7915728  72.0333254 104.5994378  72.5865022
  71.8358075 104.2909466  73.4708353  72.6432960 105.3256017  72.7162951
  80.0404588 115.1258325  75.7216962  80.7707977 114.8643614  76.2824666
  79.4311534 114.3887047  75.7619030  78.1219886 113.2666188  76.3191414
  77.3953049 113.1322153  75.7107905  77.7067172 113.5743017  77.1248132
  65.9450062 116.9856118  84.0838787  66.8653071 117.1634717  84.2778833
  65.9099645 116.0412163  83.9318486  64.2454287 110.8588348  62.5593015
  63.3385742 110.5621461  62.6355729  64.5230268 110.5618166  61.6927301
  55.1632227 112.1794711  73.0092061  54.8435011 111.3260020  72.7166435
  54.6165655 112.3943290  73.7650029  58.9412135 114.8957152  76.7261568
  59.1598144 115.8274260  76.7449602  59.3537908 114.5365127  77.5116372
  65.8616352 105.4025238  68.7137256  65.0517081 105.0572323  69.0892502
  66.5500769 105.0932781  69.3024868  67.7906901 104.4803284  70.3361553
  68.3437939 104.8998738  70.9951576  68.0276987 103.5539033  70.3784509
  63.8140000 110.4690358  86.1164317  63.7136727 111.4184715  86.0476408
  63.5961542 110.1408597  85.2440387  63.0153071 107.7175283  62.7004994
  63.8772235 108.0430182  62.9600811  63.2003415 106.9306779  62.1878060
  55.0320487 115.7997623  74.9785183  54.3383958 115.3851576  74.4655137
  55.7793478 115.8418159  74.3818602  71.1685708 106.5903810  69.8440217
  70.5884377 107.2488614  69.4618270  70.9021640 105.7681154  69.4327635
  69.6189274 105.9908867  72.0461537  70.1189052 106.1025402  71.2375856
  70.2624882 105.6869920  72.6862346  63.6771270 113.8987497  84.9329378
  63.1938352 114.6987857  85.1393267  63.7632209 113.9095442  83.9796822
  56.9457229 115.7315877  72.8551198  56.9227918 115.8303564  71.9033081
  57.2557866 116.5781027  73.1768364  59.6044607 117.7892032  76.9697812
  60.5587861 117.7575974  76.9027744  59.4057131 117.3282655  77.7848038
  60.1943989 116.3593148  79.5368610  61.0136878 116.8537226  79.5603447
  60.4680797 115.4425116  79.5086177  69.9510586 108.7503900  68.8996565
  69.0636441 109.0353551  68.6816760  70.3664575 108.5897663  68.0523842
  73.3025122 108.7750421  72.6150905  74.0785512 109.2646873  72.8875521
  72.5773256 109.2008475  73.0722774  75.7397680 109.4878040  73.6724845
  76.3342171 109.2473776  72.9618153  75.8124264 108.7685171  74.2998382
  69.0953799 118.5148575  62.9944585  69.7989649 118.7198577  63.6102241
  68.3716448 119.0825337  63.2593669  69.9251609 114.2658436  69.1146856
  69.8686811 114.7226987  68.2754488  70.4779952 113.5049121  68.9369698
  73.7356415 110.0548168  69.9396975  73.4793350 109.6544803  70.7705183
  73.1109283 110.7691962  69.8147114  78.0468753 112.7944241  72.4468266
  77.4868311 112.8637430  73.2199828  77.4412257 112.6185226  71.7267763
  71.0040497 118.9531104  65.0443045  71.8386100 118.5212302  64.8620520
  70.8424839 118.7813118  65.9719940  70.6586389 115.4563217  66.4099385
  70.6035193 115.2907489  65.4687829  70.0332444 116.1639250  66.5661574
  55.4478904 110.6931282  80.2360807  56.0937767 110.1830236  80.7248032
  55.2396055 111.4299963  80.8104232  67.9732296 117.7612129  85.7352947
  68.8423456 117.9352781  85.3739582  67.4939047 118.5806546  85.6128677
  63.9682514 104.9571326  65.9884703  63.9561184 105.9013166  66.1452974
  64.8605936 104.7741472  65.6944164  62.1418476 124.8809230  77.4142381
  63.0445723 124.9132840  77.7308876  61.9155846 123.9509681  77.4288717
  63.8972078 123.6340217  74.0752460  62.9467709 123.6342078  73.9616832
  64.2004564 122.8872951  73.5588494  67.7834634 101.5514103  70.2430640
  67.0167029 100.9972590  70.3887322  68.1945339 101.6235972  71.1044792
  59.7876395 107.8398899  84.3335821  60.6507856 107.4835704  84.5439146
  59.2141805 107.5012793  85.0211225  79.6324772 129.4700755  75.1398222
  80.2703182 129.3507502  74.4361562  79.5145615 130.4181599  75.1986174
  76.4414478 129.4228183  75.0759747  76.1032989 129.3069248  74.1880282
  77.3104246 129.0219348  75.0560753  74.1422757 128.1916431  64.4076687
  74.3948278 127.6697952  63.6460150  73.2047316 128.0282576  64.5103371
  79.1866040 127.1952209  72.2151430  79.9729129 126.7771632  71.8641847
  79.4504744 128.0998301  72.3833079  84.5874467 127.1327442  73.1184409
  85.3199639 126.5626659  73.3522238  83.8313823 126.7449043  73.5590914
  76.2050587 129.5554684  70.3147751  75.8408794 129.0285305  71.0260673
  77.0617703 129.1653153  70.1414237  82.1099888 120.8449016  77.5779017
  81.7783212 121.7144427  77.3540232  81.5145501 120.5285300  78.2573048
  75.8456074 124.5844583  65.3109100  76.0130476 125.4524820  65.6779571
  75.6553243 124.7471865  64.3870389  82.0028551 125.5644102  74.6572367
  81.0945428 125.4959511  74.3631128  81.9516147 126.0416047  75.4854193
  75.8245295 127.0402241  66.2955767  75.7044920 127.4859292  67.1341247
  75.1297883 127.3887558  65.7369305  76.0769417 126.9833748  82.6007265
  75.3002751 127.5427668  82.5910129  76.7159980 127.4690531  83.1222135
  83.8690197 123.7660541  76.4350241  83.2264578 124.0593074  75.7890036
  83.3645126 123.6513461  77.2403438  81.5230361 127.5123714  67.1236101
  82.4348217 127.7451101  66.9483798  81.0140008 128.0960758  66.5611179
  76.1602199 126.8720949  78.1330950  77.0063394 127.2960362  78.2765599
  76.1000836 126.2154573  78.8269513  79.3101644 124.5325317  79.7912124
  79.0662576 125.2867377  79.2546399  79.5861575 124.9110664  80.6259371
  78.8666336 123.6881750  75.3725961  78.0050815 123.9863003  75.6642699
  78.8928770 123.9052149  74.4406994  74.6196791 128.3547093  68.5889332
  75.3220835 128.8068137  69.0563259  74.2877420 127.7130912  69.2169225
  73.0677153 126.9458849  82.9640542  72.4375813 127.6275130  83.1975938
  72.9613241 126.8341931  82.0193680  70.3136871 126.9775225  70.8489943
  69.5168034 127.0893919  71.3673438  70.0862463 127.3161877  69.9830833
  72.3457896 121.2479615  85.3265793  71.9524841 120.6945814  86.0013437
  73.1624036 121.5590194  85.7172310  75.2625856 122.6637494  82.9186049
  76.0035570 123.2644648  82.8390512  75.4943779 121.9215132  82.3604092
  79.2083019 118.6918597  77.1950331  78.8647289 119.5820239  77.1189442
  79.5761982 118.5020255  76.3319916  79.1733302 128.6827208  65.7022766
  78.6579926 129.4531813  65.9411153  78.9010611 128.0092345  66.3255828
  76.7580413 123.5276909  70.7608004  75.9022010 123.1383760  70.5813643
  77.1707365 123.6068870  69.9007790  78.2879560 121.0623253  75.1599564
  77.7844355 121.0253388  74.3467369  78.5810167 121.9715995  75.2196221
  74.5322446 121.1461982  74.1665746  75.3975442 120.9504791  73.8071635
  74.5999955 120.9172334  75.0935103  78.9619605 126.5554301  67.5282547
  78.6569741 126.8700450  68.3792690  79.9150047 126.6335720  67.5709880
  72.1384765 123.3764190  71.5382113  72.7128517 123.1539372  70.8055306
  72.7255747 123.4452885  72.2910714  81.1964342 129.2637917  72.3446489
  81.7096224 129.8967909  72.8468199  81.8465566 128.6639113  71.9789849
  72.4654352 125.4068651  65.5577998  71.6291664 125.7443338  65.8787273
  72.3259122 125.2717631  64.6205135  74.4407432 120.2505439  70.2657182
  73.7871845 119.9354456  69.6413797  74.3987907 119.6281180  70.9917005
  77.6745173 126.7387373  74.5904830  76.7567734 126.9602320  74.4326518
  78.0905316 126.8133683  73.7316537  78.4580221 128.1378788  69.7207510
  79.2052040 128.6500185  69.4114632  78.7271810 127.8162841  70.5811904
  80.9059058 125.1735905  71.7026299  80.1681815 124.6613291  72.0336542
  81.1585831 124.7336286  70.8909576  81.0070685 117.9512157  72.2968069
  81.3129562 117.0909520  72.0093984  81.7323290 118.5429777  72.0967063
  75.2791765 128.2465950  72.8044260  75.3340375 127.2939786  72.7286736
  74.4682967 128.4025389  73.2885558  73.2184125 126.8643009  70.5634639
  72.4051990 127.1637180  70.9699831  73.7143119 126.4698698  71.2809121
  78.8158336 127.3284834  79.3949532  79.1707724 127.5556307  80.2543998
  79.4630468 127.6603211  78.7726788  72.7098200 124.4361365  76.1795874
  73.3497579 124.2950124  75.4818837  71.8775730 124.1495878  75.8034476
  69.7126816 124.4061690  70.9568860  69.9733633 125.3207023  70.8478021
  70.5343988 123.9386132  71.1065473  71.1851741 125.8199447  78.1267685
  71.8574795 125.6116809  77.4780334  70.3581528 125.6221533  77.6872917
  77.0877313 122.4461388  80.1433346  76.4405228 123.1451338  80.0497822
  77.8578329 122.8797532  80.5109594  74.2161539 128.8062009  78.3753802
  74.9261158 128.1655202  78.3340420  74.1730847 129.0574904  79.2979982
  72.9290473 125.7927227  80.1949441  72.3927830 125.3417966  80.8471037
  72.3407182 125.9273136  79.4519905  72.3392732 125.2515879  62.7575905
  71.4622198 125.1304679  62.3938151  72.8150485 124.4601957  62.5054793
  68.6629594 124.9283235  77.2802436  68.5787783 124.3208904  76.5452846
  67.8412301 125.4192253  77.2811932  78.8353308 123.4136798  72.6472631
  79.3322008 122.6606761  72.3273701  78.0640290 123.4501115  72.0815840
  75.4188277 125.5554181  72.3744315  75.0486065 125.0025222  73.0625221
  75.9147369 124.9512315  71.8219315  83.3055640 128.0125805  70.7561088
  83.7716093 128.8453797  70.6821391  83.7563141 127.5470787  71.4606347
  81.2772303 120.3806392  74.7951990  80.3635383 120.6110619  74.9634196
  81.7065405 120.4644836  75.6466022  81.0478762 128.5696284  77.2951884
  80.3950212 128.8172191  76.6404336  81.4259141 127.7560422  76.9614361
  77.0966335 129.3116095  83.7817921  76.4206972 129.2110224  84.4520296
  77.9193968 129.1555309  84.2453918  70.8153611 122.9658172  78.6197421
  70.8794937 123.8273003  78.2074819  70.7520731 122.3532174  77.8869780
  70.2905883 125.0381305  82.2670456  70.9177922 124.6558382  82.8807980
  69.4333802 124.8195507  82.6326148  70.5965673 124.9213730  74.1816359
  69.8752259 125.5349698  74.0423832  71.3858929 125.4571495  74.1033005
  73.3991986 122.2568157  80.4557011  73.9226388 122.5030453  81.2183320
  73.1804320 123.0888192  80.0360148  68.7959268 124.5271832  68.3228136
  68.4671974 123.6469210  68.1403242  69.1498638 124.4719500  69.2104525
  71.9101091 124.8144801  68.6903613  72.2497163 125.3430723  67.9682222
  72.3573211 125.1525207  69.4662180  74.6044532 123.1981852  78.1406681
  74.2641352 122.3989665  78.5427361  73.8983538 123.4983563  77.5683515
  75.2561003 120.2831164  76.5934004  76.0787073 119.8091643  76.4712895
  75.4999067 121.0621648  77.0932691  73.8969238 123.3119423  66.8896906
  74.6177600 123.6900676  66.3860623  73.2734542 124.0308300  66.9931884
  78.0400361 124.0164572  67.8255238  78.2563975 124.8989210  67.5244067
  77.5594428 123.6250785  67.0960880  72.7799582 126.9750285  74.4025983
  72.6344163 127.2890588  75.2950264  72.3024786 127.5935185  73.8496882
  74.6395965 123.9652833  74.4506873  74.6257534 123.0693926  74.1139170
  75.3568393 123.9723497  75.0845159  76.4922096 124.3990173  76.4960000
  76.2339874 125.3207244  76.4944330  75.9607136 124.0020608  77.1860464
  74.0432861 122.8467213  69.7194443  74.1648772 121.9183860  69.9185330
  73.7534903 122.8605899  68.8072758  76.9124051 120.5322124  72.8561162
  76.9345748 120.5961457  71.9013142  77.3292110 119.6926632  73.0501669
  73.5273940 124.3599211  83.9284375  73.5762096 125.2361334  83.5462145
  74.0696455 123.8176604  83.3556018  81.4230424 127.7363728  81.8377548
  82.3240286 127.5970193  81.5461545  81.4978398 127.9018183  82.7775725
  75.7573229 125.1130583  80.6830734  74.8876538 125.4064149  80.4113322
  75.9932709 125.6971028  81.4037998  78.4612263 121.3310200  78.1996154
  78.9794207 122.0671227  77.8742643  78.1067396 121.6374193  79.0342913
  70.0411200 126.1914881  66.3157560  69.3480445 126.2659236  65.6597596
  69.7962952 125.4275225  66.8379077  78.7124857 117.7510483  73.7197051
  78.9926611 117.0833672  74.3457477  79.4975464 117.9439578  73.2071715
  82.5833715 126.1728117  77.4668626  83.5351138 126.2726214  77.4880850
  82.4137166 125.3806385  77.9766710  80.6048095 123.2583700  77.6528027
  80.0098027 123.5388713  76.9574516  80.3197791 123.7477601  78.4244768
  76.9005124 128.2630289  62.6238130  77.8464229 128.1336497  62.6926548
  76.5219369 127.5244951  63.1007558  85.2116282 126.1845280  76.6269209
  84.6955330 125.4003736  76.4399138  86.0956230 125.8563996  76.7915728
  82.8727008 119.9286295  72.5865022  82.6751830 119.6201383  73.4708353
  83.4826714 120.6547934  72.7162951  75.0848041 126.1880266  62.5593015
  74.1779496 125.8913378  62.6355729  75.3624022 125.8910084  61.6927301
  76.7010107 120.7317155  68.7137256  75.8910835 120.3864240  69.0892502
  77.3894524 120.4224699  69.3024868  78.6300655 119.8095202  70.3361553
  79.1831694 120.2290656  70.9951576  78.8670741 118.8830950  70.3784509
  74.6533754 125.7982276  86.1164317  74.5530481 126.7476633  86.0476408
  74.4355296 125.4700515  85.2440387  73.8546826 123.0467201  62.7004994
  74.7165990 123.3722099  62.9600811  74.0397170 122.2598697  62.1878060
  82.0079462 121.9195727  69.8440217  81.4278131 122.5780531  69.4618270
  81.7415395 121.0973072  69.4327635  80.4583029 121.3200785  72.0461537
  80.9582807 121.4317320  71.2375856  81.1018636 121.0161838  72.6862346
  80.7904340 124.0795818  68.8996565  79.9030195 124.3645468  68.6816760
  81.2058329 123.9189581  68.0523842  84.1418876 124.1042339  72.6150905
  84.9179266 124.5938791  72.8875521  83.4167010 124.5300393  73.0722774
  86.5791435 124.8169958  73.6724845  87.1735926 124.5765694  72.9618153
  86.6518019 124.0977088  74.2998382  80.7645364 129.5950354  69.1146856
  80.7080565 130.0518905  68.2754488  81.3173706 128.8341038  68.9369698
  84.5750170 125.3840086  69.9396975  84.3187104 124.9836721  70.7705183
  83.9503038 126.0983879  69.8147114  74.8076269 120.2863244  65.9884703
  74.7954939 121.2305084  66.1452974  75.6999691 120.1033389  65.6944164
  78.6228388 116.8806021  70.2430640  77.8560784 116.3264507  70.3887322
  79.0339093 116.9527889  71.1044792  70.6270149 123.1690816  84.3335821
  71.4901611 122.8127621  84.5439146  70.0535560 122.8304711  85.0211225
  14.5962246  14.5011372  61.8643529  15.2340656  14.3818119  61.1606869
  14.4783089  15.4492216  61.9231481  11.4051952  14.4538800  61.8005054
  11.0670464  14.3379864  60.9125588  12.2741720  14.0529965  61.7806060
   7.2638768  16.3074276  57.7901944   6.7003633  16.2164213  57.0218232
   7.1491163  15.4874181  58.2704437  11.8871735  15.6073651  67.7591259
  11.8760376  15.2126450  66.8871763  12.0492375  14.8739724  68.3525030
   4.8103200  17.8025468  60.6286165   5.6024492  17.4616292  60.2132464
   5.0499850  17.9120443  61.5488318  12.8438327  19.9745244  53.1016409
  12.1926306  20.5599324  52.7150423  13.6382689  20.5051439  53.1611447
   6.7693954  17.0634381  53.5003544   7.5424830  16.5163368  53.3616420
   7.1219353  17.9278630  53.7118005   8.6078996  18.3910763  66.7070443
   8.3168862  19.2956394  66.5917109   9.2435981  18.4327291  67.4214513
   9.5335203  15.7687612  63.2971803  10.1298775  15.5443634  62.5828766
   9.5910175  15.0272357  63.8997251   9.1060232  13.2227047  51.1321994
   9.3585752  12.7008568  50.3705457   8.1684791  13.0593192  51.2348677
  14.1503514  12.2262825  58.9396737  14.9366604  11.8082249  58.5887154
  14.4142219  13.1308918  59.1078385  14.3213592  17.6635676  53.6385394
  13.6859425  17.7370302  54.3506298  13.9910998  18.2529275  52.9604473
  19.5511942  12.1638059  59.8429715  20.2837114  11.5937275  60.0767545
  18.7951297  11.7759659  60.2836221   8.8256520  15.1255153  53.3346369
   8.7092778  14.4500056  54.0027453   8.9358780  14.6387527  52.5178522
  11.1688061  14.5865300  57.0393058  10.8046269  14.0595921  57.7505979
  12.0255177  14.1963769  56.8659543  13.5668881  18.0772179  63.7020237
  13.2669605  18.9797218  63.5936044  13.2219941  17.8104362  64.5541390
   7.0181363  14.5285976  59.7356941   6.0931859  14.3962190  59.9434633
   7.2665776  15.3080195  60.2326884  16.9666025  10.5954719  61.3817674
  16.0582903  10.5270127  61.0876435  16.9153621  11.0726664  62.2099500
  10.7882769  12.0712857  53.0201073  10.6682394  12.5169908  53.8586553
  10.0935358  12.4198175  52.4614611   8.5489661  24.8416499  56.6691204
   8.4713691  25.7924324  56.7479685   7.9451305  24.4962372  57.3266131
  11.0406891  12.0144364  69.3252571  10.2640225  12.5738285  69.3155436
  11.6797454  12.5001147  69.8467441  18.8327672   8.7971157  63.1595548
  18.1902052   9.0903690  62.5135343  18.3282600   8.6824078  63.9648745
  16.4867835  12.5434330  53.8481407  17.3985691  12.7761717  53.6729105
  15.9777482  13.1271375  53.2856486   9.2953263  14.8229818  68.8870538
  10.0367948  15.3614862  68.6105362   8.5890249  15.4496107  69.0442090
  14.7708603  16.9658958  67.4842700  15.1791959  16.5241369  66.7397332
  14.0485864  16.3911586  67.7376893  11.1239673  11.9031565  64.8576257
  11.9700868  12.3270979  65.0010906  11.0638311  11.2465189  65.5514820
  15.0937418  17.5260149  61.2394989  14.4646280  17.6905863  60.5371057
  14.7063080  17.9401758  62.0105953  18.9726650  18.4614587  58.5939352
  18.2877688  18.8413488  58.0436386  19.0570499  19.0709913  59.3271300
  14.2739118   9.5635933  66.5157430  14.0300050  10.3177994  65.9791706
  14.5499049   9.9421281  67.3504677  16.2277581  16.1074546  65.1934696
  16.4394476  16.7506306  64.5169077  16.1807329  15.2736862  64.7256626
  10.6465380  17.2634557  58.5045074  11.1103725  17.5422260  57.7149696
  10.3822178  16.3618002  58.3218164   7.5389461  16.8106039  61.4424837
   8.1090818  17.2393307  60.8042322   8.1297572  16.5288623  62.1409023
   9.5834266  13.3857709  55.3134639  10.2858309  13.8378753  55.7808565
   9.2514894  12.7441528  55.9414532  17.3423409  18.9846501  63.3657053
  18.1640853  18.5826688  63.0839735  17.3385812  18.8814735  64.3173169
  11.1080013  18.5330545  65.5217764  11.1724445  18.9950952  66.3575936
  10.3990936  17.9027909  65.6500074  25.4329402  15.3285250  59.7142025
  24.6793111  14.7592648  59.5586029  25.5676943  15.2947914  60.6612659
  10.8228030  20.1998652  55.3896744  10.6873705  21.0450188  55.8181592
  11.3637843  20.4017930  54.6262678   4.2757428  17.7174090  55.9624669
   4.7881948  18.5117340  56.1130234   4.9280140  17.0200380  55.8958271
   6.0852312  20.8339846  58.0447422   6.2618941  21.7557811  57.8568406
   6.8809146  20.5198266  58.4741802  12.4496507  20.8222219  69.5197086
  12.0060361  20.0358597  69.2017991  13.1113720  21.0101369  68.8540977
   7.2083628  22.3518020  64.0457765   7.7591053  22.2235083  63.2734759
   6.3695104  22.6512909  63.6952658  14.5477745  21.1025018  67.5478487
  14.5296220  21.9233899  67.0558757  15.4697665  20.9779094  67.7728629
  11.0050799  18.6169148  68.3901996  11.5379136  17.8557436  68.1601304
  10.4764880  18.3242800  69.1326150  14.1370776  13.7137825  52.4268073
  13.6217400  14.4842430  52.6656460  13.8648085  13.0402961  53.0501134
  19.1105051  16.4670180  54.3621246  18.3334493  16.1281339  53.9176408
  19.7896532  16.4722803  53.6876211  13.9257080  11.5864917  54.2527854
  13.6207215  11.9011066  55.1037997  14.8787522  11.6646337  54.2955187
  12.3703511  17.7455140  55.9020808  11.8424873  17.0107900  55.5894045
  11.8691014  18.5229817  55.6560776  17.3496358  15.9404161  61.0187854
  16.6920032  16.6303422  61.1067983  18.1536757  16.3300593  61.3621841
  16.1601816  14.2948534  59.0691796  16.6733698  14.9278525  59.5713506
  16.8103040  13.6949729  58.7035156  10.5156112  15.5635351  48.9055781
   9.6083173  15.3324604  49.1046930  11.0127144  14.7672970  49.0929762
  13.4224191  24.2732858  51.8252467  12.7485889  24.5764555  52.4337425
  13.8090013  25.0761938  51.4757924  12.6382647  11.7697989  61.3150136
  11.7205209  11.9912936  61.1571824  13.0542791  11.8444300  60.4561844
  13.4217695  13.1689405  56.4452817  14.1689514  13.6810802  56.1359939
  13.6909284  12.8473458  57.3057210  11.6944345  15.6647946  53.4279771
  10.7855564  15.3806978  53.5252241  11.7239429  16.0847024  52.5683078
  16.9263613  19.2754535  57.1970939  16.4725940  18.4345445  57.2536129
  16.2957579  19.9115933  57.5345719  15.8696532  10.2046521  58.4271606
  15.1319289   9.6923907  58.7581849  16.1223306   9.7646903  57.6154883
  15.3696552  21.1131032  58.1320757  15.6619526  21.6736089  57.4133122
  15.8795172  21.4059593  58.8873916  10.2429239  13.2776566  59.5289566
  10.2977849  12.3250403  59.4532043   9.4320441  13.4336005  60.0130865
  11.3920433  17.2056689  50.7667850  10.9539863  16.4892548  50.3073487
  12.1330874  17.4332804  50.2052941  10.3330177  21.8911383  59.2214210
  10.2906356  22.1172229  58.2922742  11.2492876  21.6574757  59.3700011
  13.7795811  12.3595450  66.1194839  14.1345198  12.5866923  66.9789305
  14.4267942  12.6913827  65.4972094  19.5093548  15.4813886  56.8244168
  19.3711446  15.6715482  55.8965357  19.1529767  16.2433269  57.2812219
  19.5362927  17.5490413  61.8355440  19.9699434  17.4565702  62.6838494
  20.2494508  17.5247914  61.1975456   8.4495978  18.7674412  59.0176173
   9.2436576  18.2724732  58.8158748   7.7387670  18.2392275  58.6543878
  13.2690822  21.1492507  63.3688540  13.3227844  21.7183444  64.1366256
  12.4005604  21.3194392  63.0042577  20.3978477  17.5914114  64.3688325
  20.5914367  18.4959924  64.6147600  20.2979095  17.1321533  65.2026910
  15.4593586  17.7420857  69.9429206  15.3079092  17.5131408  69.0259289
  15.4498265  18.6991458  69.9560551  12.2278922  15.3152769  64.9275472
  13.1570982  15.4663929  64.7544439  11.8069952  15.4036790  64.0724119
  11.0267254  19.3403434  62.6974010  10.8878339  18.9722218  63.5699948
  10.2381850  19.8551073  62.5257968  11.6215406  24.4412530  54.0399546
  11.7967161  23.9700573  54.8545169  10.9348194  25.0678296  54.2680807
  12.5772469  18.7185037  60.0862847  12.2422301  18.6785806  60.9820497
  12.0776415  18.0529752  59.6133258  15.5131661  16.0641071  50.3599907
  14.8960831  15.3387899  50.2632960  15.0448149  16.8250431  50.0166981
   9.1799014  13.8372626  65.0999108   9.8898632  13.1965818  65.0585727
   9.1368322  14.0885521  66.0225289  17.1685792  20.7739979  68.0205687
  17.1098338  20.0899199  67.3536271  17.5705311  21.5158969  67.5686313
   6.1876491  27.5901893  60.8139406   6.4273089  28.2220417  61.4918425
   5.3445687  27.2389933  61.1004766  17.1703199  18.7379563  66.2519667
  16.2829978  18.4005485  66.3746066  17.7401751  18.0062594  66.4888433
  10.7004353  23.3981015  63.2180910  10.6274524  24.2035987  63.7300215
  10.2581746  23.5972981  62.3928932  10.4894132  22.6352786  56.7283732
   9.7061654  23.1774466  56.8221956  11.1886878  23.1526765  57.1277973
  21.6520540  14.1487781  61.0136229  21.6410416  15.0312496  60.6430162
  20.7837919  13.7959331  60.8190766  13.1603036  23.2967850  65.3739069
  13.8731009  23.9315314  65.3014971  12.6693065  23.3931716  64.5579071
  14.8820563  17.2019102  56.9456361  13.9476842  17.3220565  56.7761065
  15.0597232  16.2991569  56.6816371  18.2693115  13.0436421  57.4806395
  18.7353567  13.8764413  57.4066698  18.7200615  12.5781403  58.1851653
   8.2114950  21.0462293  66.1944640   8.9124409  21.6798776  66.3474034
   7.7410065  21.3877025  65.4340279  16.3369346  19.3880243  54.4792547
  16.6129190  19.2736837  55.3886421  15.4673844  18.9897728  54.4404720
  16.0116236  13.6006900  64.0197190  15.3587686  13.8482808  63.3649643
  16.3896616  12.7871039  63.6859668  12.9723410  23.6366594  58.1225361
  13.1545804  22.8188250  58.5853113  13.7956396  23.8534286  57.6850251
  13.3065575  22.5634779  55.3840409  13.8353342  22.0527233  54.7710571
  13.5693795  22.2477309  56.2485942  12.0603809  14.3426711  70.5063227
  11.3844446  14.2420841  71.1765603  12.8831443  14.1865925  70.9699225
   3.8082668  20.5798648  63.1275743   4.3936105  19.8342336  63.2603647
   3.6107506  20.8902605  64.0112406   6.6621323  23.6149895  58.1438185
   5.9931698  24.0996023  57.6602225   6.5234193  23.8619116  59.0581563
  10.8026592  25.6493639  64.7420843  11.3544900  25.8125260  65.5069929
  11.1432785  26.2398077  64.0700868  15.6537466  20.4754896  70.5969498
  16.1977370  21.0884855  70.1024453  15.0724311  21.0334475  71.1136511
  13.9394979  23.5975614  61.7284525  13.8146118  22.7965354  61.2195471
  14.5974070  24.0921808  61.2398495  16.0029887  21.3984635  63.3564076
  15.0560223  21.2789986  63.2842402  16.3512661  20.5107133  63.4390337
  13.0076321  21.1937351  59.5568428  12.8601283  20.2654058  59.7375998
  13.8329814  21.2157441  59.0725503  16.6110443  22.0165909  60.6433301
  17.5356990  21.8108771  60.5057752  16.4425746  21.7682311  61.5522642
  16.4005759  22.5351577  55.9995392  16.5742636  21.9697999  55.2469244
  16.8934650  23.3352472  55.8174882  22.2545150  15.2988000  57.6185692
  22.6976296  14.5495325  57.2204815  21.3771660  15.2898136  57.2359424
  17.3880931  21.8518341  53.0992290  18.0831836  22.4725034  53.3179605
  17.7304081  21.0013693  53.3744668  19.2872354  19.3018047  54.6279621
  19.8123678  19.6405320  53.9028941  19.1994707  18.3665062  54.4442756
  10.9492403  23.2152121  66.7569498  11.2579530  22.9701267  67.6292197
  11.7467885  23.4198759  66.2688368  10.9713015  25.3690030  58.9874874
  10.5318005  24.8766409  59.6807731  11.7221132  24.8262998  58.7466949
   3.4505354  21.5601571  58.9899502   4.2763374  21.2605343  58.6098146
   3.0999406  20.7909193  59.4389291   8.4186887  20.9128039  61.0597176
   7.7966897  20.2498744  60.7599404   9.0891754  20.9389171  60.3770824
   1.6513959  19.4787897  59.9488436   0.8145867  19.0510072  59.7672437
   1.6237605  19.6720341  60.8859227  18.9766260  19.9350951  69.9330819
  18.1861804  19.9175089  69.3935318  18.7399615  20.4739244  70.6879856
  19.0964136  16.7843417  67.2463548  19.1462140  16.6193424  68.1879070
  18.9878059  15.9170676  66.8561428   7.9800394  19.4631963  54.5355636
   8.1288515  20.1467427  53.8822309   8.7866838  19.4437053  55.0505092
  16.3867898  12.7674345  68.5622854  17.2877761  12.6280810  68.2706852
  16.4615872  12.9328800  69.5021032  20.5982332  19.2040358  67.4905569
  20.3067141  19.5670339  68.3269030  19.9854464  18.4907367  67.3118901
  21.7978015  16.7693238  60.0108139  22.6324906  17.2083042  60.1745700
  21.9337143  16.2931891  59.1916385  18.8469521  14.3272973  65.9585627
  19.3223642  14.5200619  65.1504478  17.9235086  14.3832159  65.7129011
   5.7353027  15.4897140  55.5416705   5.4899069  14.5859470  55.7396915
   5.9048942  15.4914291  54.5996183  11.4795800  21.9580093  52.0067384
  10.9069767  22.5770280  51.5537856  12.0528593  22.5079455  52.5407306
  17.5471190  11.2038733  64.1913933  18.4988612  11.3036831  64.2126157
  17.3774640  10.4117002  64.7012017  15.5685569   8.2894316  64.3773334
  14.9735501   8.5699329  63.6819822  15.2835266   8.7788217  65.1490075
  14.6993060  22.2417243  53.1375966  15.6323733  22.1762805  53.3408842
  14.6116272  23.0773510  52.6790499  17.3281076  21.5583114  50.0979914
  17.2494708  21.2242977  50.9915672  18.1490743  22.0504881  50.0971386
  20.0259267  14.4244853  63.3056232  19.9935587  13.4860854  63.4915916
  20.6359891  14.5028890  62.5722057  11.8642598  13.2940906  49.3483436
  12.8101703  13.1647114  49.4171854  11.4856843  12.5555568  49.8252865
  20.1753756  11.2155896  63.3514515  19.6592804  10.4314353  63.1644444
  21.0593704  10.8874613  63.5161035  25.8435817  15.4860860  62.4462269
  26.5739206  15.2246148  63.0069972  25.2342763  14.7489582  62.4864337
  23.9251114  13.6268722  63.0436720  23.1984278  13.4924687  62.4353212
  23.5098401  13.9345551  63.8493438  11.7481291  17.3458652  70.8084093
  12.6684300  17.5237251  71.0024140  11.7130874  16.4014697  70.6563793
   4.7443363  15.2559687  63.4506874   4.9629373  16.1876794  63.4694908
   5.1569137  14.8967661  64.2361678   9.4802499  14.2590031  71.6574685
   8.9969580  15.0590391  71.8638574   9.5663438  14.2697976  70.7042129
   5.4075836  18.1494566  63.6943119   6.3619090  18.1178508  63.6273050
   5.2088360  17.6885190  64.5093345   5.9975218  16.7195682  66.2613917
   6.8168107  17.2139761  66.2848754   6.2712026  15.8027650  66.2331484
  15.7541814   9.1106434  55.6241872  14.8667670   9.3956085  55.4062067
  16.1695804   8.9500198  54.7769149  19.1056351   9.1352955  59.3396211
  19.8816741   9.6249408  59.6120828  18.3804485   9.5611009  59.7968081
  21.5428909   9.8480574  60.3970152  22.1373400   9.6076310  59.6863460
  21.6155493   9.1287705  61.0243688   3.7626065  23.6914185  60.7113317
   3.6280533  22.9314586  60.1451315   3.3458127  24.4155085  60.2442106
  14.8985028  18.8751109  49.7189892  15.6020878  19.0801111  50.3347548
  14.1747677  19.4427871  49.9838976  15.7282838  14.6260970  55.8392162
  15.6718040  15.0829522  54.9999795  16.2811181  13.8651655  55.6615005
  19.5387644  10.4150702  56.6642282  19.2824578  10.0147338  57.4950489
  18.9140512  11.1294496  56.5392421  23.8499982  13.1546775  59.1713573
  23.2899540  13.2239965  59.9445135  23.2443485  12.9787760  58.4513069
   6.9195191  24.5883502  60.9231759   6.8027575  25.5328935  60.8210450
   6.0987637  24.2857064  61.3117559  16.8071725  19.3133638  51.7688352
  17.6417329  18.8814837  51.5865827  16.6456068  19.1415652  52.6965247
  16.4617618  15.8165751  53.1344691  16.4066421  15.6510023  52.1933135
  15.8363673  16.5241784  53.2906881  13.7763525  18.1214663  72.4598254
  14.6454684  18.2955316  72.0984889  13.2970276  18.9409080  72.3373983
   7.9449705  25.2411764  64.1387688   8.8476952  25.2735375  64.4554183
   7.7187075  24.3112215  64.1534024   9.7003307  23.9942751  60.7997766
   8.7498938  23.9944612  60.6862139  10.0035793  23.2475485  60.2833801
  25.4356000  29.8303289  61.8643529  26.0734410  29.7110037  61.1606869
  25.3176843  30.7784133  61.9231481  22.2445707  29.7830717  61.8005054
  21.9064218  29.6671782  60.9125588  23.1135475  29.3821882  61.7806060
  18.1032522  31.6366194  57.7901944  17.5397388  31.5456131  57.0218232
  17.9884917  30.8166098  58.2704437  22.7265490  30.9365569  67.7591259
  22.7154130  30.5418367  66.8871763  22.8886129  30.2031642  68.3525030
  15.6496954  33.1317385  60.6286165  16.4418246  32.7908210  60.2132464
  15.8893605  33.2412360  61.5488318  23.6832081  35.3037161  53.1016409
  23.0320061  35.8891242  52.7150423  24.4776444  35.8343356  53.1611447
  17.6087708  32.3926299  53.5003544  18.3818584  31.8455286  53.3616420
  17.9613107  33.2570548  53.7118005  19.4472751  33.7202681  66.7070443
  19.1562617  34.6248312  66.5917109  20.0829735  33.7619208  67.4214513
  20.3728958  31.0979529  63.2971803  20.9692530  30.8735552  62.5828766
  20.4303929  30.3564275  63.8997251  19.9453986  28.5518965  51.1321994
  20.1979507  28.0300486  50.3705457  19.0078545  28.3885110  51.2348677
  24.9897269  27.5554743  58.9396737  25.7760358  27.1374166  58.5887154
  25.2535973  28.4600835  59.1078385  25.1607346  32.9927593  53.6385394
  24.5253179  33.0662220  54.3506298  24.8304753  33.5821192  52.9604473
  30.3905696  27.4929976  59.8429715  31.1230868  26.9229193  60.0767545
  29.6345052  27.1051577  60.2836221  19.6650275  30.4547071  53.3346369
  19.5486533  29.7791974  54.0027453  19.7752535  29.9679445  52.5178522
  22.0081816  29.9157218  57.0393058  21.6440023  29.3887839  57.7505979
  22.8648932  29.5255687  56.8659543  27.9131116  21.2051550  64.3024324
  27.5814441  22.0746961  64.0785539  27.3176730  20.8887834  64.9818354
  21.6487303  24.9447117  52.0354406  21.8161705  25.8127354  52.4024877
  21.4584472  25.1074399  51.1115696  24.4062636  33.4064096  63.7020237
  24.1063359  34.3089135  63.5936044  24.0613695  33.1396280  64.5541390
  17.8575117  29.8577893  59.7356941  16.9325614  29.7254107  59.9434633
  18.1059531  30.6372112  60.2326884  27.8059780  25.9246637  61.3817674
  26.8976657  25.8562045  61.0876435  27.7547376  26.4018581  62.2099500
  21.6276524  27.4004775  53.0201073  21.5076149  27.8461826  53.8586553
  20.9329112  27.7490093  52.4614611  15.2183928  29.5011167  60.5700730
  15.3476310  29.7545646  61.4840142  14.5381380  30.0938875  60.2505385
  19.3883416  40.1708417  56.6691204  19.3107445  41.1216242  56.7479685
  18.7845059  39.8254289  57.3266131  21.8800646  27.3436282  69.3252571
  21.1033980  27.9030202  69.3155436  22.5191209  27.8293065  69.8467441
  29.6721426  24.1263075  63.1595548  29.0295806  24.4195608  62.5135343
  29.1676355  24.0115995  63.9648745  27.3261590  27.8726248  53.8481407
  28.2379446  28.1053635  53.6729105  26.8171237  28.4563292  53.2856486
  20.1347018  30.1521736  68.8870538  20.8761702  30.6906779  68.6105362
  19.4284003  30.7788024  69.0442090  25.6102357  32.2950876  67.4842700
  26.0185714  31.8533286  66.7397332  24.8879619  31.7203503  67.7376893
  21.9633428  27.2323483  64.8576257  22.8094623  27.6562896  65.0010906
  21.9032065  26.5757107  65.5514820  25.9331172  32.8552067  61.2394989
  25.3040035  33.0197781  60.5371057  25.5456834  33.2693676  62.0105953
  29.8120404  33.7906504  58.5939352  29.1271442  34.1705406  58.0436386
  29.8964253  34.4001831  59.3271300  25.1132873  24.8927851  66.5157430
  24.8693805  25.6469912  65.9791706  25.3892803  25.2713199  67.3504677
  27.0671336  31.4366463  65.1934696  27.2788231  32.0798223  64.5169077
  27.0201084  30.6028780  64.7256626  24.6697565  24.0484284  62.0971268
  23.8082044  24.3465538  62.3888006  24.6959999  24.2654683  61.1652301
  21.4859134  32.5926475  58.5045074  21.9497480  32.8714178  57.7149696
  21.2215932  31.6909919  58.3218164  18.3783215  32.1397956  61.4424837
  18.9484572  32.5685225  60.8042322  18.9691327  31.8580541  62.1409023
  20.4228020  28.7149627  55.3134639  21.1252063  29.1670671  55.7808565
  20.0908649  28.0733446  55.9414532  18.8708382  27.3061384  69.6885848
  18.2407042  27.9877665  69.9221245  18.7644469  27.1944465  68.7438987
  14.1653354  26.9733180  60.6151772  13.3752408  27.2290708  60.1391883
  14.6564601  27.7881518  60.7203813  28.1817164  34.3138419  63.3657053
  29.0034607  33.9118606  63.0839735  28.1779566  34.2106653  64.3173169
  16.1168099  27.3377759  57.5735249  15.3199263  27.4496453  58.0918745
  15.8893692  27.6764411  56.7076140  21.9473767  33.8622462  65.5217764
  22.0118200  34.3242869  66.3575936  21.2384691  33.2319827  65.6500074
  12.4491057  27.2263670  63.0466763  12.6999095  28.1110680  63.3124339
  12.9850605  27.0468272  62.2741855  36.2723157  30.6577167  59.7142025
  35.5186865  30.0884565  59.5586029  36.4070698  30.6239832  60.6612659
  21.6621785  35.5290570  55.3896744  21.5267459  36.3742105  55.8181592
  22.2031597  35.7309847  54.6262678  18.1489124  21.6082150  72.0511099
  17.7556070  21.0548348  72.7258744  18.9655265  21.9192728  72.4417617
  15.1151182  33.0466008  55.9624669  15.6275703  33.8409258  56.1130234
  15.7673895  32.3492298  55.8958271  16.9246067  36.1631764  58.0447422
  17.1012695  37.0849729  57.8568406  17.7202900  35.8490183  58.4741802
  21.0657085  23.0240029  69.6431356  21.8066799  23.6247182  69.5635818
  21.2975008  22.2817666  69.0849398  16.2098423  28.2096396  67.9209586
  16.0951938  27.3081653  68.2216685  15.3542941  28.4560093  67.5694402
  23.2890261  36.1514136  69.5197086  22.8454115  35.3650515  69.2017991
  23.9507475  36.3393287  68.8540977  18.0477382  37.6809938  64.0457765
  18.5984807  37.5527001  63.2734759  17.2088858  37.9804827  63.6952658
  25.3871499  36.4316936  67.5478487  25.3689974  37.2525817  67.0558757
  26.3091419  36.3071011  67.7728629  21.8444553  33.9461066  68.3901996
  22.3772890  33.1849354  68.1601304  21.3158634  33.6534717  69.1326150
  25.0114248  19.0521132  63.9195638  24.6678518  19.9422773  63.8434748
  25.3793211  18.8622789  63.0565223  13.0800099  31.3754662  56.7384240
  13.9175321  31.7851670  56.5217947  13.2578367  30.4354104  56.7084434
  24.9764531  29.0429743  52.4268073  24.4611154  29.8134347  52.6656460
  24.7041839  28.3694879  53.0501134  22.5611642  23.8879443  57.4853311
  21.7053238  23.4986294  57.3058950  22.9738594  23.9671404  56.6253097
  24.0910789  21.4225787  61.8844871  23.5875584  21.3855922  61.0712676
  24.3841395  22.3318529  61.9441527  20.3353675  21.5064516  60.8911053
  21.2006671  21.3107325  60.5316942  20.4031183  21.2774868  61.8180409
  29.9498805  31.7962097  54.3621246  29.1728248  31.4573257  53.9176408
  30.6290286  31.8014720  53.6876211  24.7650834  26.9156835  54.2527854
  24.4600970  27.2302984  55.1037997  25.7181276  26.9938255  54.2955187
  23.2097266  33.0747058  55.9020808  22.6818628  32.3399818  55.5894045
  22.7084769  33.8521734  55.6560776  28.1890112  31.2696079  61.0187854
  27.5313786  31.9595340  61.1067983  28.9930511  31.6592511  61.3621841
  17.9415994  23.7366724  58.2627419  18.5159745  23.5141906  57.5300612
  18.5286976  23.8055419  59.0156021  26.9995571  29.6240451  59.0691796
  27.5127453  30.2570443  59.5713506  27.6496795  29.0241647  58.7035156
  18.2685581  25.7671185  52.2823305  17.4322893  26.1045872  52.6032579
  18.1290350  25.6320165  51.3450442  20.2438661  20.6107973  56.9902489
  19.5903074  20.2956990  56.3659104  20.2019135  19.9883714  57.7162312
  21.3549866  30.8927268  48.9055781  20.4476928  30.6616522  49.1046930
  21.8520898  30.0964888  49.0929762  24.2617945  39.6024776  51.8252467
  23.5879644  39.9056472  52.4337425  24.6483767  40.4053856  51.4757924
  23.4776402  27.0989907  61.3150136  22.5598963  27.3204854  61.1571824
  23.8936545  27.1736217  60.4561844  24.2611449  28.4981322  56.4452817
  25.0083268  29.0102720  56.1359939  24.5303039  28.1765375  57.3057210
  22.5338100  30.9939863  53.4279771  21.6249319  30.7098896  53.5252241
  22.5633183  31.4138942  52.5683078  27.7657367  34.6046453  57.1970939
  27.3119694  33.7637363  57.2536129  27.1351334  35.2407851  57.5345719
  26.7090287  25.5338439  58.4271606  25.9713043  25.0215825  58.7581849
  26.9617060  25.0938820  57.6154883  26.2090306  36.4422949  58.1320757
  26.5013281  37.0028007  57.4133122  26.7188927  36.7351510  58.8873916
  26.8101914  18.3114691  59.0213375  27.1160791  17.4512054  58.7339290
  27.5354519  18.9032311  58.8212369  13.1026270  28.7145377  57.4094973
  12.9050670  28.1214738  56.6846040  12.5472934  28.4097588  58.1270912
  21.0822994  28.6068484  59.5289566  21.1371603  27.6542320  59.4532043
  20.2714196  28.7627923  60.0130865  22.2314187  32.5348607  50.7667850
  21.7933617  31.8184466  50.3073487  22.9724628  32.7624722  50.2052941
  19.0215354  27.2245544  57.2879945  18.2083219  27.5239714  57.6945137
  19.5174348  26.8301232  58.0054427  21.1723931  37.2203300  59.2214210
  21.1300110  37.4464147  58.2922742  22.0886630  36.9866675  59.3700011
  24.6189565  27.6887368  66.1194839  24.9738953  27.9158841  66.9789305
  25.2661696  28.0205745  65.4972094  30.3487302  30.8105804  56.8244168
  30.2105201  31.0007400  55.8965357  29.9923521  31.5725187  57.2812219
  18.5129428  24.7963899  62.9041180  19.1528808  24.6552658  62.2064143
  17.6806959  24.5098412  62.5279782  30.3756682  32.8782331  61.8355440
  30.8093188  32.7857620  62.6838494  31.0888262  32.8539831  61.1975456
  19.2889732  34.0966329  59.0176173  20.0830331  33.6016650  58.8158748
  18.5781425  33.5684193  58.6543878  24.1084577  36.4784425  63.3688540
  24.1621599  37.0475361  64.1366256  23.2399358  36.6486310  63.0042577
  15.5972496  28.2409411  55.0935925  14.6670084  28.1793867  55.3105887
  15.6929968  27.7185364  54.2972567  15.5158045  24.7664224  57.6814167
  15.7764862  25.6809557  57.5723327  16.3375217  24.2988667  57.8310780
  16.9882970  26.1801981  64.8512991  17.6606023  25.9719343  64.2025640
  16.1612757  25.9824067  64.4118224  31.2372231  32.9206032  64.3688325
  31.4308121  33.8251842  64.6147600  31.1372850  32.4613451  65.2026910
  22.8908542  22.8063922  66.8678652  22.2436457  23.5053872  66.7743129
  23.6609557  23.2400066  67.2354901  26.2987340  33.0712774  69.9429206
  26.1472846  32.8423326  69.0259289  26.2892019  34.0283376  69.9560551
  23.0672676  30.6444687  64.9275472  23.9964736  30.7955847  64.7544439
  22.6463706  30.7328708  64.0724119  21.8661008  34.6695351  62.6974010
  21.7272094  34.3014136  63.5699948  21.0775604  35.1842991  62.5257968
  22.4609160  39.7704448  54.0399546  22.6360916  39.2992491  54.8545169
  21.7741948  40.3970214  54.2680807  23.4166223  34.0476954  60.0862847
  23.0816056  34.0077724  60.9820497  22.9170169  33.3821670  59.6133258
  17.3910467  29.4544584  65.6115429  17.2530265  28.7224823  66.2126968
  18.3015391  29.3653484  65.3299616  26.3525415  31.3932989  50.3599907
  25.7354586  30.6679817  50.2632960  25.8841903  32.1542349  50.0166981
  20.0192768  29.1664544  65.0999108  20.7292387  28.5257736  65.0585727
  19.9762076  29.4177438  66.0225289  28.0079547  36.1031897  68.0205687
  27.9492093  35.4191117  67.3536271  28.4099065  36.8450887  67.5686313
  18.7321702  26.1529761  66.9194748  18.1959059  25.7020500  67.5716344
  18.1438410  26.2875670  66.1765212  17.0270245  42.9193811  60.8139406
  17.2666844  43.5512335  61.4918425  16.1839442  42.5681851  61.1004766
  18.1423961  25.6118413  49.4821211  17.2653427  25.4907214  49.1183458
  18.6181714  24.8204491  49.2300100  28.0096954  34.0671481  66.2519667
  27.1223733  33.7297403  66.3746066  28.5795505  33.3354512  66.4888433
   9.6626101  30.3995573  59.5762719  10.3497141  30.0857303  58.9883734
   9.5074230  31.3036937  59.3029970  14.4660823  25.2885769  64.0047742
  14.3819012  24.6811439  63.2698152  13.6443530  25.7794787  64.0057239
  21.5398107  38.7272933  63.2180910  21.4668279  39.5327905  63.7300215
  21.0975500  38.9264899  62.3928932  21.3287887  37.9644703  56.7283732
  20.5455409  38.5066383  56.8221956  22.0280632  38.4818683  57.1277973
  24.6384537  23.7739333  59.3717937  25.1353237  23.0209295  59.0519008
  23.8671519  23.8103649  58.8061147  32.4914294  29.4779698  61.0136229
  32.4804171  30.3604414  60.6430162  31.6231674  29.1251249  60.8190766
  23.9996791  38.6259767  65.3739069  24.7124763  39.2607232  65.3014971
  23.5086819  38.7223633  64.5579071  25.7214318  32.5311020  56.9456361
  24.7870596  32.6512482  56.7761065  25.8990986  31.6283487  56.6816371
  21.2219506  25.9156716  59.0989622  20.8517293  25.3627756  59.7870527
  21.7178598  25.3114849  58.5464622  29.1086869  28.3728339  57.4806395
  29.5747321  29.2056331  57.4066698  29.5594370  27.9073321  58.1851653
  19.0508704  36.3754211  66.1944640  19.7518164  37.0090694  66.3474034
  18.5803819  36.7168942  65.4340279  27.1763100  34.7172160  54.4792547
  27.4522944  34.6028755  55.3886421  26.3067599  34.3189645  54.4404720
  27.0803532  20.7408926  61.5197296  26.1666612  20.9713153  61.6879503
  27.5096633  20.8247370  62.3711329  26.8509990  28.9298818  64.0197190
  26.1981441  29.1774726  63.3649643  27.2290370  28.1162956  63.6859668
  23.8117164  38.9658511  58.1225361  23.9939559  38.1480167  58.5853113
  24.6350150  39.1826204  57.6850251  24.1459330  37.8926696  55.3840409
  24.6747096  37.3819151  54.7710571  24.4087549  37.5769227  56.2485942
  22.8997563  29.6718629  70.5063227  22.2238200  29.5712758  71.1765603
  23.7225197  29.5157843  70.9699225  14.6476422  35.9090566  63.1275743
  15.2329859  35.1634254  63.2603647  14.4501261  36.2194522  64.0112406
  17.5015078  38.9441813  58.1438185  16.8325453  39.4287941  57.6602225
  17.3627947  39.1911034  59.0581563   9.2394077  28.4796166  61.8480186
   9.2778177  27.9459757  62.6417304   8.7334370  27.9531371  61.2291163
  21.6420346  40.9785557  64.7420843  22.1938654  41.1417178  65.5069929
  21.9826540  41.5689994  64.0700868  16.6184839  23.3260706  65.3442728
  16.6826166  24.1875537  64.9320126  16.5551960  22.7134708  64.6115087
  16.0937112  25.3983839  68.9915762  16.7209151  25.0160916  69.6053287
  15.2365031  25.1798041  69.3571455  26.4931221  35.8046814  70.5969498
  27.0371125  36.4176772  70.1024453  25.9118065  36.3626393  71.1136511
  12.8702655  27.2060268  54.9234117  13.1656096  26.2970946  54.8701171
  11.9690691  27.1848008  54.6015119  24.7788734  38.9267532  61.7284525
  24.6539873  38.1257272  61.2195471  25.4367825  39.4213726  61.2398495
  16.3996902  25.2816265  60.9061666  15.6783488  25.8952232  60.7669139
  17.1890158  25.8174029  60.8278312  26.8423642  36.7276552  63.3564076
  25.8953977  36.6081903  63.2842402  27.1906415  35.8399050  63.4390337
  19.2023215  22.6170691  67.1802317  19.7257617  22.8632988  67.9428627
  18.9835549  23.4490726  66.7605455  14.5990496  24.8874366  55.0473442
  14.2703203  24.0071745  54.8648548  14.9529867  24.8322034  55.9349831
  23.8470075  36.5229268  59.5568428  23.6995038  35.5945976  59.7375998
  24.6723569  36.5449359  59.0725503  17.7132320  25.1747336  55.4148920
  18.0528392  25.7033257  54.6927528  18.1604440  25.5127742  56.1907486
  27.4504197  37.3457827  60.6433301  28.3750745  37.1400689  60.5057752
  27.2819500  37.0974228  61.5522642  20.4075760  23.5584386  64.8651988
  20.0672581  22.7592199  65.2672668  19.7014767  23.8586097  64.2928821
  21.0592232  20.6433699  63.3179311  21.8818301  20.1694177  63.1958201
  21.3030296  21.4224182  63.8177997  19.7000467  23.6721957  53.6142213
  20.4208829  24.0503210  53.1105930  19.0765771  24.3910834  53.7177191
  23.8431590  24.3767106  54.5500545  24.0595204  25.2591744  54.2489373
  23.3625657  23.9853320  53.8206187  18.5830811  27.3352819  61.1271290
  18.4375392  27.6493122  62.0195571  18.1056015  27.9537720  60.5742188
  20.4427194  24.3255367  61.1752179  20.4288763  23.4296461  60.8384477
  21.1599622  24.3326031  61.8090465  22.2953325  24.7592708  63.2205307
  22.0371102  25.6809778  63.2189637  21.7638365  24.3623142  63.9105771
  27.2399513  37.8643495  55.9995392  27.4136391  37.2989917  55.2469244
  27.7328405  38.6644390  55.8174882  13.0576473  29.8758164  64.0658951
  12.5129941  30.6517972  64.1979225  13.9355823  30.2228968  63.9078072
  19.8464090  23.2069748  56.4439749  19.9680001  22.2786394  56.6430637
  19.5566132  23.2208434  55.5318065  22.7155280  20.8924658  59.5806469
  22.7376977  20.9563991  58.6258449  23.1323339  20.0529167  59.7746975
  33.0938904  30.6279918  57.6185692  33.5370050  29.8787243  57.2204815
  32.2165415  30.6190054  57.2359424  28.2274686  37.1810259  53.0992290
  28.9225590  37.8016952  53.3179605  28.5697836  36.3305610  53.3744668
  13.8442495  29.0028060  66.9589108  13.1024231  29.1510695  67.5453738
  13.5235239  29.2636326  66.0955857  30.1266109  34.6309965  54.6279621
  30.6517433  34.9697237  53.9028941  30.0388461  33.6956980  54.4442756
  21.7886158  38.5444038  66.7569498  22.0973284  38.2993185  67.6292197
  22.5861640  38.7490677  66.2688368  21.8106770  40.6981948  58.9874874
  21.3711760  40.2058327  59.6807731  22.5614887  40.1554916  58.7466949
  14.2899109  36.8893489  58.9899502  15.1157129  36.5897261  58.6098146
  13.9393161  36.1201111  59.4389291  19.2580642  36.2419957  61.0597176
  18.6360651  35.5790662  60.7599404  19.9285509  36.2681089  60.3770824
  12.4907714  34.8079815  59.9488436  11.6539622  34.3801990  59.7672437
  12.4631359  35.0012259  60.8859227  19.3305169  24.7201745  70.6529682
  19.3793325  25.5963868  70.2707452  19.8727683  24.1779138  70.0801325
  29.8160015  35.2642868  69.9330819  29.0255559  35.2467007  69.3935318
  29.5793370  35.8031162  70.6879856  29.9357890  32.1135335  67.2463548
  29.9855895  31.9485342  68.1879070  29.8271813  31.2462594  66.8561428
  18.8194149  34.7923880  54.5355636  18.9682269  35.4759345  53.8822309
  19.6260592  34.7728970  55.0505092  27.2261652  28.0966263  68.5622854
  28.1271515  27.9572727  68.2706852  27.3009627  28.2620717  69.5021032
  21.5604458  25.4733117  67.4076041  20.6907767  25.7666683  67.1358629
  21.7963938  26.0573562  68.1283304  31.4376087  34.5332276  67.4905569
  31.1460895  34.8962257  68.3269030  30.8248218  33.8199284  67.3118901
  32.6371769  32.0985156  60.0108139  33.4718661  32.5374960  60.1745700
  32.7730898  31.6223809  59.1916385  29.6863275  29.6564891  65.9585627
  30.1617397  29.8492537  65.1504478  28.7628840  29.7124077  65.7129011
  16.5746782  30.8189058  55.5416705  16.3292824  29.9151388  55.7396915
  16.7442696  30.8206208  54.5996183  24.2643492  21.6912734  64.9241461
  24.7825435  22.4273761  64.5987950  23.9098624  21.9976728  65.7588220
  15.8442429  26.5517415  53.0402867  15.1511674  26.6261770  52.3842903
  15.5994181  25.7877759  53.5624384  24.5156086  18.1113017  60.4442358
  24.7957839  17.4436206  61.0702784  25.3006693  18.3042112  59.9317021
  22.3189554  37.2872011  52.0067384  21.7463521  37.9062198  51.5537856
  22.8922348  37.8371372  52.5407306  28.3864944  26.5330651  64.1913933
  29.3382367  26.6328748  64.2126157  28.2168394  25.7408919  64.7012017
  26.4079324  23.6186234  64.3773334  25.8129256  23.8991247  63.6819822
  26.1229020  24.1080135  65.1490075  25.5386814  37.5709161  53.1375966
  26.4717487  37.5054723  53.3408842  25.4510027  38.4065428  52.6790499
  28.1674831  36.8875031  50.0979914  28.0888462  36.5534895  50.9915672
  28.9884497  37.3796799  50.0971386  30.8653022  29.7536771  63.3056232
  30.8329342  28.8152771  63.4915916  31.4753646  29.8320807  62.5722057
  22.7036353  28.6232823  49.3483436  23.6495457  28.4939032  49.4171854
  22.3250598  27.8847485  49.8252865  31.0147510  26.5447814  63.3514515
  30.4986559  25.7606271  63.1644444  31.8987459  26.2166531  63.5161035
  28.6758237  20.2888830  59.3110328  28.4783058  19.9803918  60.1953660
  29.2857943  21.0150468  59.4408258  36.6829572  30.8152777  62.4462269
  37.4132960  30.5538065  63.0069972  36.0736517  30.0781499  62.4864337
  34.7644869  28.9560640  63.0436720  34.0378032  28.8216605  62.4353212
  34.3492156  29.2637469  63.8493438  22.5875045  32.6750570  70.8084093
  23.5078055  32.8529169  71.0024140  22.5524628  31.7306615  70.6563793
  20.8879270  26.5482800  49.2838322  19.9810725  26.2515913  49.3601035
  21.1655251  26.2512618  48.4172608  11.8057210  27.8689163  59.7337368
  11.4859995  27.0154471  59.4411742  11.2590638  28.0837741  60.4895335
  15.5837118  30.5851604  63.4506874  15.8023128  31.5168712  63.4694908
  15.9962892  30.2259579  64.2361678  22.5041336  21.0919690  55.4382563
  21.6942064  20.7466775  55.8137809  23.1925753  20.7827233  56.0270174
  24.4331884  20.1697736  57.0606860  24.9862922  20.5893190  57.7196883
  24.6701970  19.2433484  57.1029816  20.4564983  26.1584810  72.8409623
  20.3561710  27.1079167  72.7721715  20.2386525  25.8303049  71.9685694
  19.6578054  23.4069735  49.4250301  20.5197218  23.7324633  49.6846118
  19.8428399  22.6201231  48.9123367  11.6745470  31.4892075  61.7030490
  10.9808942  31.0746028  61.1900444  12.4218461  31.5312611  61.1063908
  27.8110691  22.2798262  56.5685524  27.2309360  22.9383066  56.1863576
  27.5446624  21.4575606  56.1572941  26.2614257  21.6803319  58.7706844
  26.7614036  21.7919854  57.9621163  26.9049865  21.3764372  59.4107653
  20.3196253  29.5881949  71.6574685  19.8363335  30.3882309  71.8638574
  20.4057192  29.5989894  70.7042129  13.5882213  31.4210329  59.5796504
  13.5652901  31.5198016  58.6278388  13.8982849  32.2675479  59.9013671
  16.2469591  33.4786484  63.6943119  17.2012844  33.4470426  63.6273050
  16.0482114  33.0177107  64.5093345  16.8368973  32.0487600  66.2613917
  17.6561862  32.5431678  66.2848754  17.1105780  31.1319568  66.2331484
  26.5935569  24.4398352  55.6241872  25.7061424  24.7248003  55.4062067
  27.0089558  24.2792115  54.7769149  29.9450105  24.4644873  59.3396211
  30.7210495  24.9541325  59.6120828  29.2198239  24.8902927  59.7968081
  32.3822664  25.1772492  60.3970152  32.9767155  24.9368228  59.6863460
  32.4549247  24.4579623  61.0243688  14.6019819  39.0206103  60.7113317
  14.4674287  38.2606504  60.1451315  14.1851882  39.7447003  60.2442106
  25.7378782  34.2043027  49.7189892  26.4414633  34.4093029  50.3347548
  25.0141431  34.7719788  49.9838976  26.5676593  29.9552888  55.8392162
  26.5111794  30.4121439  54.9999795  27.1204935  29.1943572  55.6615005
  30.3781399  25.7442620  56.6642282  30.1218333  25.3439255  57.4950489
  29.7534267  26.4586414  56.5392421  34.6893736  28.4838693  59.1713573
  34.1293294  28.5531882  59.9445135  34.0837240  28.3079678  58.4513069
  17.7588945  39.9175420  60.9231759  17.6421329  40.8620853  60.8210450
  16.9381392  39.6148982  61.3117559  27.6465480  34.6425556  51.7688352
  28.4811084  34.2106754  51.5865827  27.4849823  34.4707569  52.6965247
  27.3011372  31.1457669  53.1344691  27.2460176  30.9801941  52.1933135
  26.6757427  31.8533702  53.2906881  12.0903887  26.3825733  66.9606114
  12.7362751  25.8724687  67.4493339  11.8821038  27.1194415  67.5349539
  24.6157279  33.4506581  72.4598254  25.4848439  33.6247233  72.0984889
  24.1364031  34.2700998  72.3373983  20.6107498  20.6465778  52.7130010
  20.5986167  21.5907618  52.8698281  21.5030919  20.4635924  52.4189471
  18.7843459  40.5703682  64.1387688  19.6870706  40.6027292  64.4554183
  18.5580830  39.6404133  64.1534024  20.5397061  39.3234669  60.7997766
  19.5892692  39.3236530  60.6862139  20.8429548  38.5767403  60.2833801
  24.4259617  17.2408555  56.9675947  23.6592013  16.6867041  57.1132629
  24.8370322  17.3130424  57.8290098  16.4301378  23.5293351  71.0581128
  17.2932840  23.1730155  71.2684452  15.8566789  23.1907245  71.7456532
  36.2749755  45.1595207  61.8643529  36.9128165  45.0401954  61.1606869
  36.1570598  46.1076051  61.9231481  33.0839461  45.1122635  61.8005054
  32.7457973  44.9963700  60.9125588  33.9529229  44.7113800  61.7806060
  28.9426277  46.9658111  57.7901944  28.3791142  46.8748048  57.0218232
  28.8278672  46.1458016  58.2704437  33.5659244  46.2657487  67.7591259
  33.5547885  45.8710285  66.8871763  33.7279884  45.5323559  68.3525030
  26.4890709  48.4609303  60.6286165  27.2812001  48.1200128  60.2132464
  26.7287359  48.5704278  61.5488318  34.5225836  50.6329079  53.1016409
  33.8713815  51.2183160  52.7150423  35.3170198  51.1635274  53.1611447
  28.4481463  47.7218216  53.5003544  29.2212339  47.1747203  53.3616420
  28.8006862  48.5862466  53.7118005  30.2866505  49.0494599  66.7070443
  29.9956371  49.9540229  66.5917109  30.9223490  49.0911126  67.4214513
  31.2122712  46.4271447  63.2971803  31.8086284  46.2027469  62.5828766
  31.2697684  45.6856193  63.8997251  30.7847741  43.8810882  51.1321994
  31.0373261  43.3592404  50.3705457  29.8472300  43.7177028  51.2348677
  35.8291023  42.8846661  58.9396737  36.6154113  42.4666084  58.5887154
  36.0929728  43.7892753  59.1078385  36.0001101  48.3219511  53.6385394
  35.3646934  48.3954138  54.3506298  35.6698507  48.9113110  52.9604473
  30.5044029  45.7838988  53.3346369  30.3880287  45.1083892  54.0027453
  30.6146289  45.2971362  52.5178522  32.8475570  45.2449135  57.0393058
  32.4833778  44.7179756  57.7505979  33.7042686  44.8547605  56.8659543
  38.7524871  36.5343468  64.3024324  38.4208196  37.4038879  64.0785539
  38.1570484  36.2179752  64.9818354  32.4881057  40.2739035  52.0354406
  32.6555460  41.1419272  52.4024877  32.2978226  40.4366317  51.1115696
  35.2456390  48.7356014  63.7020237  34.9457114  49.6381053  63.5936044
  34.9007450  48.4688197  64.5541390  28.6968872  45.1869811  59.7356941
  27.7719368  45.0546025  59.9434633  28.9453285  45.9664030  60.2326884
  38.6453534  41.2538554  61.3817674  37.7370412  41.1853963  61.0876435
  38.5941130  41.7310499  62.2099500  32.4670278  42.7296693  53.0201073
  32.3469903  43.1753743  53.8586553  31.7722867  43.0782010  52.4614611
  26.0577683  44.8303084  60.5700730  26.1870064  45.0837563  61.4840142
  25.3775134  45.4230792  60.2505385  30.2277170  55.5000334  56.6691204
  30.1501200  56.4508159  56.7479685  29.6238814  55.1546207  57.3266131
  32.7194400  42.6728200  69.3252571  31.9427734  43.2322120  69.3155436
  33.3584963  43.1584983  69.8467441  40.5115181  39.4554993  63.1595548
  39.8689561  39.7487526  62.5135343  40.0070109  39.3407913  63.9648745
  38.1655344  43.2018166  53.8481407  39.0773200  43.4345553  53.6729105
  37.6564991  43.7855210  53.2856486  30.9740772  45.4813653  68.8870538
  31.7155457  46.0198697  68.6105362  30.2677758  46.1079942  69.0442090
  36.4496112  47.6242794  67.4842700  36.8579468  47.1825204  66.7397332
  35.7273373  47.0495421  67.7376893  32.8027182  42.5615400  64.8576257
  33.6488377  42.9854814  65.0010906  32.7425820  41.9049025  65.5514820
  36.7724927  48.1843984  61.2394989  36.1433789  48.3489698  60.5371057
  36.3850589  48.5985594  62.0105953  35.9526627  40.2219769  66.5157430
  35.7087559  40.9761829  65.9791706  36.2286558  40.6005116  67.3504677
  37.9065090  46.7658381  65.1934696  38.1181985  47.4090141  64.5169077
  37.8594838  45.9320698  64.7256626  35.5091319  39.3776202  62.0971268
  34.6475798  39.6757455  62.3888006  35.5353754  39.5946601  61.1652301
  32.3252888  47.9218392  58.5045074  32.7891234  48.2006095  57.7149696
  32.0609687  47.0201837  58.3218164  29.2176970  47.4689874  61.4424837
  29.7878327  47.8977142  60.8042322  29.8085081  47.1872459  62.1409023
  31.2621775  44.0441545  55.3134639  31.9645818  44.4962588  55.7808565
  30.9302403  43.4025364  55.9414532  29.7102136  42.6353301  69.6885848
  29.0800797  43.3169582  69.9221245  29.6038224  42.5236383  68.7438987
  25.0047108  42.3025097  60.6151772  24.2146162  42.5582626  60.1391883
  25.4958356  43.1173435  60.7203813  39.0210918  49.6430337  63.3657053
  39.8428362  49.2410524  63.0839735  39.0173321  49.5398571  64.3173169
  26.9561854  42.6669677  57.5735249  26.1593017  42.7788371  58.0918745
  26.7287446  43.0056329  56.7076140  32.7867522  49.1914380  65.5217764
  32.8511954  49.6534787  66.3575936  32.0778445  48.5611745  65.6500074
  23.2884811  42.5555588  63.0466763  23.5392850  43.4402598  63.3124339
  23.8244360  42.3760189  62.2741855  32.5015539  50.8582487  55.3896744
  32.3661214  51.7034023  55.8181592  33.0425352  51.0601765  54.6262678
  28.9882879  36.9374067  72.0511099  28.5949824  36.3840266  72.7258744
  29.8049019  37.2484646  72.4417617  25.9544937  48.3757925  55.9624669
  26.4669457  49.1701176  56.1130234  26.6067649  47.6784216  55.8958271
  27.7639821  51.4923682  58.0447422  27.9406450  52.4141646  57.8568406
  28.5596655  51.1782101  58.4741802  31.9050840  38.3531946  69.6431356
  32.6460553  38.9539099  69.5635818  32.1368763  37.6109584  69.0849398
  27.0492178  43.5388314  67.9209586  26.9345693  42.6373571  68.2216685
  26.1936696  43.7852010  67.5694402  34.1284016  51.4806054  69.5197086
  33.6847870  50.6942432  69.2017991  34.7901229  51.6685204  68.8540977
  28.8871137  53.0101855  64.0457765  29.4378562  52.8818919  63.2734759
  28.0482613  53.3096744  63.6952658  36.2265254  51.7608854  67.5478487
  36.2083729  52.5817735  67.0558757  37.1485174  51.6362929  67.7728629
  32.6838308  49.2752983  68.3901996  33.2166645  48.5141271  68.1601304
  32.1552389  48.9826635  69.1326150  35.8508003  34.3813049  63.9195638
  35.5072272  35.2714691  63.8434748  36.2186965  34.1914707  63.0565223
  23.9193853  46.7046580  56.7384240  24.7569075  47.1143588  56.5217947
  24.0972121  45.7646022  56.7084434  33.4005396  39.2171361  57.4853311
  32.5446993  38.8278212  57.3058950  33.8132348  39.2963322  56.6253097
  34.9304543  36.7517704  61.8844871  34.4269339  36.7147840  61.0712676
  35.2235150  37.6610447  61.9441527  31.1747429  36.8356434  60.8911053
  32.0400426  36.6399243  60.5316942  31.2424938  36.6066786  61.8180409
  40.7892560  47.1254015  54.3621246  40.0122002  46.7865174  53.9176408
  41.4684041  47.1306638  53.6876211  35.6044589  42.2448752  54.2527854
  35.2994724  42.5594902  55.1037997  36.5575031  42.3230172  54.2955187
  34.0491020  48.4038976  55.9020808  33.5212382  47.6691735  55.5894045
  33.5478523  49.1813652  55.6560776  39.0283866  46.5987996  61.0187854
  38.3707541  47.2887258  61.1067983  39.8324266  46.9884428  61.3621841
  28.7809748  39.0658642  58.2627419  29.3553500  38.8433824  57.5300612
  29.3680731  39.1347337  59.0156021  37.8389325  44.9532369  59.0691796
  38.3521207  45.5862361  59.5713506  38.4890549  44.3533564  58.7035156
  29.1079335  41.0963103  52.2823305  28.2716647  41.4337790  52.6032579
  28.9684105  40.9612083  51.3450442  31.0832416  35.9399891  56.9902489
  30.4296828  35.6248908  56.3659104  31.0412890  35.3175631  57.7162312
  32.1943621  46.2219186  48.9055781  31.2870682  45.9908439  49.1046930
  32.6914653  45.4256805  49.0929762  35.1011700  54.9316693  51.8252467
  34.4273398  55.2348390  52.4337425  35.4877522  55.7345774  51.4757924
  34.3170156  42.4281824  61.3150136  33.3992718  42.6496771  61.1571824
  34.7330300  42.5028135  60.4561844  35.1005204  43.8273240  56.4452817
  35.8477023  44.3394637  56.1359939  35.3696793  43.5057293  57.3057210
  33.3731854  46.3231781  53.4279771  32.4643073  46.0390814  53.5252241
  33.4026938  46.7430859  52.5683078  38.6051122  49.9338370  57.1970939
  38.1513449  49.0929280  57.2536129  37.9745088  50.5699769  57.5345719
  37.5484041  40.8630356  58.4271606  36.8106798  40.3507743  58.7581849
  37.8010815  40.4230738  57.6154883  37.0484061  51.7714867  58.1320757
  37.3407035  52.3319924  57.4133122  37.5582681  52.0643428  58.8873916
  37.6495668  33.6406608  59.0213375  37.9554545  32.7803972  58.7339290
  38.3748273  34.2324229  58.8212369  23.9420024  44.0437295  57.4094973
  23.7444424  43.4506656  56.6846040  23.3866688  43.7389505  58.1270912
  31.9216748  43.9360401  59.5289566  31.9765358  42.9834238  59.4532043
  31.1107950  44.0919841  60.0130865  33.0707942  47.8640525  50.7667850
  32.6327372  47.1476383  50.3073487  33.8118383  48.0916639  50.2052941
  29.8609108  42.5537461  57.2879945  29.0476974  42.8531632  57.6945137
  30.3568102  42.1593150  58.0054427  32.0117686  52.5495218  59.2214210
  31.9693865  52.7756064  58.2922742  32.9280385  52.3158593  59.3700011
  35.4583320  43.0179286  66.1194839  35.8132707  43.2450759  66.9789305
  36.1055451  43.3497662  65.4972094  41.1881057  46.1397722  56.8244168
  41.0498955  46.3299318  55.8965357  40.8317275  46.9017104  57.2812219
  29.3523183  40.1255817  62.9041180  29.9922562  39.9844576  62.2064143
  28.5200713  39.8390330  62.5279782  41.2150436  48.2074249  61.8355440
  41.6486943  48.1149538  62.6838494  41.9282017  48.1831749  61.1975456
  30.1283487  49.4258247  59.0176173  30.9224085  48.9308567  58.8158748
  29.4175179  48.8976110  58.6543878  34.9478331  51.8076343  63.3688540
  35.0015353  52.3767279  64.1366256  34.0793113  51.9778228  63.0042577
  26.4366250  43.5701329  55.0935925  25.5063838  43.5085784  55.3105887
  26.5323722  43.0477282  54.2972567  26.3551799  40.0956142  57.6814167
  26.6158617  41.0101475  57.5723327  27.1768972  39.6280584  57.8310780
  27.8276725  41.5093899  64.8512991  28.4999778  41.3011261  64.2025640
  27.0006511  41.3115985  64.4118224  33.7302297  38.1355840  66.8678652
  33.0830212  38.8345789  66.7743129  34.5003312  38.5691984  67.2354901
  37.1381095  48.4004692  69.9429206  36.9866601  48.1715244  69.0259289
  37.1285774  49.3575293  69.9560551  33.9066431  45.9736605  64.9275472
  34.8358491  46.1247764  64.7544439  33.4857461  46.0620626  64.0724119
  32.7054763  49.9987269  62.6974010  32.5665848  49.6306054  63.5699948
  31.9169359  50.5134909  62.5257968  33.3002915  55.0996366  54.0399546
  33.4754670  54.6284409  54.8545169  32.6135703  55.7262132  54.2680807
  34.2559978  49.3768872  60.0862847  33.9209810  49.3369642  60.9820497
  33.7563924  48.7113588  59.6133258  28.2304222  44.7836502  65.6115429
  28.0924020  44.0516741  66.2126968  29.1409145  44.6945402  65.3299616
  30.8586522  44.4956461  65.0999108  31.5686141  43.8549653  65.0585727
  30.8155831  44.7469356  66.0225289  29.5715456  41.4821679  66.9194748
  29.0352813  41.0312418  67.5716344  28.9832165  41.6167588  66.1765212
  27.8664000  58.2485728  60.8139406  28.1060598  58.8804253  61.4918425
  27.0233196  57.8973768  61.1004766  28.9817715  40.9410331  49.4821211
  28.1047182  40.8199131  49.1183458  29.4575468  40.1496409  49.2300100
  38.8490708  49.3963398  66.2519667  37.9617487  49.0589320  66.3746066
  39.4189259  48.6646430  66.4888433  20.5019856  45.7287490  59.5762719
  21.1890895  45.4149220  58.9883734  20.3467984  46.6328855  59.3029970
  25.3054578  40.6177687  64.0047742  25.2212766  40.0103356  63.2698152
  24.4837284  41.1086705  64.0057239  32.3791862  54.0564851  63.2180910
  32.3062033  54.8619822  63.7300215  31.9369255  54.2556817  62.3928932
  32.1681641  53.2936621  56.7283732  31.3849163  53.8358301  56.8221956
  32.8674387  53.8110601  57.1277973  35.4778292  39.1031250  59.3717937
  35.9746991  38.3501213  59.0519008  34.7065273  39.1395567  58.8061147
  43.3308049  44.8071616  61.0136229  43.3197925  45.6896331  60.6430162
  42.4625428  44.4543167  60.8190766  34.8390545  53.9551685  65.3739069
  35.5518518  54.5899150  65.3014971  34.3480574  54.0515551  64.5579071
  36.5608072  47.8602938  56.9456361  35.6264351  47.9804400  56.7761065
  36.7384741  46.9575404  56.6816371  32.0613260  41.2448633  59.0989622
  31.6911048  40.6919674  59.7870527  32.5572353  40.6406767  58.5464622
  39.9480624  43.7020257  57.4806395  40.4141076  44.5348248  57.4066698
  40.3988124  43.2365238  58.1851653  29.8902459  51.7046128  66.1944640
  30.5911918  52.3382611  66.3474034  29.4197574  52.0460860  65.4340279
  38.0156855  50.0464078  54.4792547  38.2916699  49.9320673  55.3886421
  37.1461353  49.6481563  54.4404720  37.9197286  36.0700844  61.5197296
  37.0060366  36.3005071  61.6879503  38.3490388  36.1539288  62.3711329
  37.6903745  44.2590736  64.0197190  37.0375195  44.5066643  63.3649643
  38.0684125  43.4454874  63.6859668  34.6510919  54.2950429  58.1225361
  34.8333313  53.4772085  58.5853113  35.4743905  54.5118121  57.6850251
  34.9853084  53.2218614  55.3840409  35.5140851  52.7111069  54.7710571
  35.2481304  52.9061144  56.2485942  33.7391318  45.0010547  70.5063227
  33.0631955  44.9004676  71.1765603  34.5618952  44.8449761  70.9699225
  25.4870177  51.2382483  63.1275743  26.0723614  50.4926171  63.2603647
  25.2895015  51.5486440  64.0112406  28.3408832  54.2733731  58.1438185
  27.6719207  54.7579858  57.6602225  28.2021702  54.5202951  59.0581563
  20.0787832  43.8088084  61.8480186  20.1171931  43.2751674  62.6417304
  19.5728124  43.2823289  61.2291163  32.4814101  56.3077474  64.7420843
  33.0332409  56.4709096  65.5069929  32.8220294  56.8981912  64.0700868
  27.4578594  38.6552624  65.3442728  27.5219920  39.5167455  64.9320126
  27.3945714  38.0426626  64.6115087  26.9330867  40.7275757  68.9915762
  27.5602905  40.3452834  69.6053287  26.0758785  40.5089959  69.3571455
  23.7096409  42.5352186  54.9234117  24.0049850  41.6262864  54.8701171
  22.8084445  42.5139925  54.6015119  35.6182488  54.2559450  61.7284525
  35.4933627  53.4549190  61.2195471  36.2761579  54.7505643  61.2398495
  27.2390656  40.6108182  60.9061666  26.5177242  41.2244150  60.7669139
  28.0283912  41.1465947  60.8278312  37.6817396  52.0568470  63.3564076
  36.7347732  51.9373821  63.2842402  38.0300170  51.1690968  63.4390337
  30.0416970  37.9462609  67.1802317  30.5651372  38.1924905  67.9428627
  29.8229303  38.7782644  66.7605455  25.4384251  40.2166283  55.0473442
  25.1096957  39.3363662  54.8648548  25.7923622  40.1613952  55.9349831
  34.6863830  51.8521186  59.5568428  34.5388792  50.9237894  59.7375998
  35.5117323  51.8741277  59.0725503  28.5526074  40.5039253  55.4148920
  28.8922147  41.0325174  54.6927528  28.9998194  40.8419659  56.1907486
  38.2897952  52.6749745  60.6433301  39.2144499  52.4692606  60.5057752
  38.1213255  52.4266146  61.5522642  31.2469515  38.8876304  64.8651988
  30.9066335  38.0884117  65.2672668  30.5408521  39.1878015  64.2928821
  31.8985987  35.9725616  63.3179311  32.7212056  35.4986095  63.1958201
  32.1424050  36.7516100  63.8177997  30.5394221  39.0013875  53.6142213
  31.2602584  39.3795128  53.1105930  29.9159525  39.7202752  53.7177191
  34.6825344  39.7059024  54.5500545  34.8988958  40.5883662  54.2489373
  34.2019411  39.3145237  53.8206187  29.4224565  42.6644737  61.1271290
  29.2769146  42.9785040  62.0195571  28.9449769  43.2829637  60.5742188
  31.2820948  39.6547285  61.1752179  31.2682517  38.7588378  60.8384477
  31.9993376  39.6617949  61.8090465  33.1347079  40.0884625  63.2205307
  32.8764857  41.0101696  63.2189637  32.6032119  39.6915060  63.9105771
  38.0793268  53.1935412  55.9995392  38.2530145  52.6281835  55.2469244
  38.5722159  53.9936307  55.8174882  23.8970228  45.2050081  64.0658951
  23.3523696  45.9809889  64.1979225  24.7749577  45.5520886  63.9078072
  30.6857844  38.5361665  56.4439749  30.8073755  37.6078311  56.6430637
  30.3959887  38.5500351  55.5318065  33.5549035  36.2216576  59.5806469
  33.5770731  36.2855909  58.6258449  33.9717094  35.3821084  59.7746975
  43.9332659  45.9571835  57.6185692  44.3763805  45.2079160  57.2204815
  43.0559169  45.9481972  57.2359424  24.6836249  44.3319978  66.9589108
  23.9417985  44.4802613  67.5453738  24.3628994  44.5928243  66.0955857
  32.6279912  53.8735956  66.7569498  32.9367039  53.6285103  67.6292197
  33.4255394  54.0782594  66.2688368  32.6500524  56.0273866  58.9874874
  32.2105514  55.5350244  59.6807731  33.4008641  55.4846833  58.7466949
  25.1292863  52.2185406  58.9899502  25.9550883  51.9189178  58.6098146
  24.7786915  51.4493029  59.4389291  30.0974396  51.5711875  61.0597176
  29.4754406  50.9082580  60.7599404  30.7679263  51.5973006  60.3770824
  23.3301468  50.1371733  59.9488436  22.4933376  49.7093907  59.7672437
  23.3025114  50.3304176  60.8859227  30.1698924  40.0493663  70.6529682
  30.2187079  40.9255785  70.2707452  30.7121438  39.5071056  70.0801325
  29.6587903  50.1215798  54.5355636  29.8076024  50.8051262  53.8822309
  30.4654347  50.1020888  55.0505092  38.0655407  43.4258180  68.5622854
  38.9665270  43.2864645  68.2706852  38.1403381  43.5912635  69.5021032
  32.3998212  40.8025035  67.4076041  31.5301522  41.0958601  67.1358629
  32.6357693  41.3865480  68.1283304  40.5257030  44.9856808  65.9585627
  41.0011151  45.1784455  65.1504478  39.6022595  45.0415994  65.7129011
  27.4140536  46.1480976  55.5416705  27.1686578  45.2443306  55.7396915
  27.5836451  46.1498126  54.5996183  35.1037246  37.0204652  64.9241461
  35.6219190  37.7565679  64.5987950  34.7492379  37.3268645  65.7588220
  26.6836184  41.8809333  53.0402867  25.9905429  41.9553688  52.3842903
  26.4387936  41.1169677  53.5624384  35.3549840  33.4404934  60.4442358
  35.6351594  32.7728124  61.0702784  36.1400447  33.6334030  59.9317021
  33.1583309  52.6163928  52.0067384  32.5857276  53.2354116  51.5537856
  33.7316102  53.1663290  52.5407306  39.2258699  41.8622568  64.1913933
  40.1776121  41.9620666  64.2126157  39.0562149  41.0700837  64.7012017
  37.2473078  38.9478152  64.3773334  36.6523010  39.2283164  63.6819822
  36.9622775  39.4372053  65.1490075  36.3780568  52.9001079  53.1375966
  37.3111242  52.8346640  53.3408842  36.2903781  53.7357345  52.6790499
  41.7046776  45.0828688  63.3056232  41.6723096  44.1444689  63.4915916
  42.3147400  45.1612725  62.5722057  33.5430107  43.9524741  49.3483436
  34.4889212  43.8230949  49.4171854  33.1644352  43.2139403  49.8252865
  41.8541265  41.8739732  63.3514515  41.3380313  41.0898188  63.1644444
  42.7381213  41.5458448  63.5161035  39.5151992  35.6180747  59.3110328
  39.3176813  35.3095835  60.1953660  40.1251697  36.3442386  59.4408258
  33.4268800  48.0042487  70.8084093  34.3471809  48.1821086  71.0024140
  33.3918383  47.0598533  70.6563793  31.7273024  41.8774718  49.2838322
  30.8204480  41.5807830  49.3601035  32.0049005  41.5804536  48.4172608
  22.6450965  43.1981081  59.7337368  22.3253749  42.3446389  59.4411742
  22.0984393  43.4129659  60.4895335  26.4230872  45.9143522  63.4506874
  26.6416882  46.8460630  63.4694908  26.8356646  45.5551496  64.2361678
  33.3435090  36.4211607  55.4382563  32.5335818  36.0758692  55.8137809
  34.0319507  36.1119151  56.0270174  35.2725638  35.4989654  57.0606860
  35.8256677  35.9185107  57.7196883  35.5095725  34.5725402  57.1029816
  31.2958738  41.4876728  72.8409623  31.1955464  42.4371085  72.7721715
  31.0780280  41.1594967  71.9685694  30.4971809  38.7361653  49.4250301
  31.3590973  39.0616551  49.6846118  30.6822153  37.9493149  48.9123367
  22.5139225  46.8183992  61.7030490  21.8202696  46.4037945  61.1900444
  23.2612216  46.8604529  61.1063908  38.6504445  37.6090179  56.5685524
  38.0703115  38.2674983  56.1863576  38.3840378  36.7867524  56.1572941
  37.1008012  37.0095237  58.7706844  37.6007790  37.1211771  57.9621163
  37.7443620  36.7056290  59.4107653  31.1590008  44.9173867  71.6574685
  30.6757089  45.7174227  71.8638574  31.2450947  44.9281811  70.7042129
  24.4275967  46.7502246  59.5796504  24.4046655  46.8489933  58.6278388
  24.7376604  47.5967397  59.9013671  27.0863345  48.8078401  63.6943119
  28.0406599  48.7762344  63.6273050  26.8875869  48.3469025  64.5093345
  27.6762727  47.3779517  66.2613917  28.4955616  47.8723596  66.2848754
  27.9499535  46.4611485  66.2331484  37.4329323  39.7690270  55.6241872
  36.5455179  40.0539920  55.4062067  37.8483313  39.6084033  54.7769149
  25.4413574  54.3498021  60.7113317  25.3068042  53.5898422  60.1451315
  25.0245636  55.0738921  60.2442106  37.4070347  45.2844806  55.8392162
  37.3505549  45.7413357  54.9999795  37.9598690  44.5235490  55.6615005
  41.2175153  41.0734537  56.6642282  40.9612087  40.6731173  57.4950489
  40.5928021  41.7878331  56.5392421  28.5982700  55.2467338  60.9231759
  28.4815084  56.1912770  60.8210450  27.7775146  54.9440899  61.3117559
  22.9297642  41.7117651  66.9606114  23.5756505  41.2016605  67.4493339
  22.7214793  42.4486333  67.5349539  35.4551034  48.7798499  72.4598254
  36.3242193  48.9539151  72.0984889  34.9757785  49.5992915  72.3373983
  31.4501252  35.9757696  52.7130010  31.4379922  36.9199536  52.8698281
  32.3424674  35.7927841  52.4189471  29.6237214  55.8995600  64.1387688
  30.5264461  55.9319210  64.4554183  29.3974584  54.9696051  64.1534024
  31.3790816  54.6526586  60.7997766  30.4286447  54.6528448  60.6862139
  31.6823302  53.9059321  60.2833801  35.2653371  32.5700472  56.9675947
  34.4985767  32.0158959  57.1132629  35.6764076  32.6422341  57.8290098
  27.2695133  38.8585268  71.0581128  28.1326594  38.5022073  71.2684452
  26.6960543  38.5199163  71.7456532  36.8971437  60.1595002  60.5700730
  37.0263819  60.4129481  61.4840142  36.2168889  60.7522710  60.2505385
  41.0670925  70.8292252  56.6691204  40.9894954  71.7800077  56.7479685
  40.4632568  70.4838125  57.3266131  35.8440863  57.6317015  60.6151772
  35.0539917  57.8874544  60.1391883  36.3352110  58.4465353  60.7203813
  34.1278566  57.8847506  63.0466763  34.3786604  58.7694515  63.3124339
  34.6638114  57.7052107  62.2741855  34.7587608  62.0338497  56.7384240
  35.5962830  62.4435506  56.5217947  34.9365876  61.0937940  56.7084434
  45.9405454  70.2608611  51.8252467  45.2667153  70.5640308  52.4337425
  46.3271276  71.0637691  51.4757924  34.7813779  59.3729213  57.4094973
  34.5838179  58.7798573  56.6846040  34.2260443  59.0681423  58.1270912
  37.2760005  58.8993247  55.0935925  36.3457593  58.8377702  55.3105887
  37.3717477  58.3769199  54.2972567  37.1945554  55.4248059  57.6814167
  37.4552371  56.3393393  57.5723327  38.0162726  54.9572502  57.8310780
  44.1396669  70.4288283  54.0399546  44.3148425  69.9576327  54.8545169
  43.4529457  71.0554050  54.2680807  38.7057754  73.5777646  60.8139406
  38.9454353  74.2096170  61.4918425  37.8626951  73.2265686  61.1004766
  31.3413610  61.0579408  59.5762719  32.0284650  60.7441138  58.9883734
  31.1861739  61.9620773  59.3029970  36.1448332  55.9469604  64.0047742
  36.0606521  55.3395274  63.2698152  35.3231039  56.4378623  64.0057239
  43.0075396  68.6228539  56.7283732  42.2242918  69.1650219  56.8221956
  43.7068141  69.1402518  57.1277973  36.3263931  66.5674401  63.1275743
  36.9117368  65.8218089  63.2603647  36.1288770  66.8778358  64.0112406
  30.9181586  59.1380001  61.8480186  30.9565686  58.6043592  62.6417304
  30.4121879  58.6115207  61.2291163  38.2972348  53.9844542  65.3442728
  38.3613675  54.8459373  64.9320126  38.2339469  53.3718543  64.6115087
  34.5490164  57.8644103  54.9234117  34.8443605  56.9554782  54.8701171
  33.6478200  57.8431843  54.6015119  38.0784411  55.9400100  60.9061666
  37.3570997  56.5536068  60.7669139  38.8677667  56.4757865  60.8278312
  36.2778005  55.5458201  55.0473442  35.9490711  54.6655580  54.8648548
  36.6317376  55.4905870  55.9349831  39.3919828  55.8331171  55.4148920
  39.7315901  56.3617092  54.6927528  39.8391949  56.1711577  56.1907486
  34.7363982  60.5341999  64.0658951  34.1917450  61.3101807  64.1979225
  35.6143332  60.8812804  63.9078072  35.5230004  59.6611895  66.9589108
  34.7811740  59.8094531  67.5453738  35.2022748  59.9220161  66.0955857
  43.4894279  71.3565783  58.9874874  43.0499269  70.8642162  59.6807731
  44.2402396  70.8138751  58.7466949  51.4947524  65.9226704  69.9330819
  50.7043068  65.9050842  69.3935318  51.2580879  66.4614997  70.6879856
  43.9977063  67.9455846  52.0067384  43.4251030  68.5646033  51.5537856
  44.5709857  68.4955208  52.5407306  33.4844719  58.5272999  59.7337368
  33.1647504  57.6738307  59.4411742  32.9378147  58.7421577  60.4895335
  33.3532979  62.1475910  61.7030490  32.6596451  61.7329863  61.1900444
  34.1005970  62.1896447  61.1063908  35.2669722  62.0794164  59.5796504
  35.2440410  62.1781851  58.6278388  35.5770358  62.9259315  59.9013671
  39.4376454  70.5759255  60.9231759  39.3208838  71.5204688  60.8210450
  38.6168901  70.2732817  61.3117559  33.7691396  57.0409569  66.9606114
  34.4150260  56.5308523  67.4493339  33.5608547  57.7778250  67.5349539
  57.9537264  75.8179042  61.8643529  58.5915674  75.6985790  61.1606869
  57.8358107  76.7659886  61.9231481  54.7626970  75.7706470  61.8005054
  54.4245482  75.6547535  60.9125588  55.6316738  75.3697635  61.7806060
  50.6213786  77.6241947  57.7901944  50.0578651  77.5331884  57.0218232
  50.5066181  76.8041851  58.2704437  55.2446753  76.9241322  67.7591259
  55.2335394  76.5294120  66.8871763  55.4067393  76.1907395  68.3525030
  48.1678218  79.1193138  60.6286165  48.9599510  78.7783963  60.2132464
  48.4074868  79.2288113  61.5488318  56.2013345  81.2912914  53.1016409
  55.5501324  81.8766995  52.7150423  56.9957707  81.8219109  53.1611447
  50.1268972  78.3802052  53.5003544  50.8999848  77.8331039  53.3616420
  50.4794371  79.2446301  53.7118005  51.9654014  79.7078434  66.7070443
  51.6743880  80.6124065  66.5917109  52.6010999  79.7494962  67.4214513
  52.8910221  77.0855282  63.2971803  53.4873793  76.8611305  62.5828766
  52.9485193  76.3440028  63.8997251  52.4635250  74.5394718  51.1321994
  52.7160770  74.0176239  50.3705457  51.5259809  74.3760863  51.2348677
  57.5078532  73.5430496  58.9396737  58.2941622  73.1249919  58.5887154
  57.7717237  74.4476588  59.1078385  57.6788610  78.9803346  53.6385394
  57.0434443  79.0537973  54.3506298  57.3486016  79.5696945  52.9604473
  62.9086960  73.4805729  59.8429715  63.6412131  72.9104946  60.0767545
  62.1526315  73.0927330  60.2836221  52.1831538  76.4422824  53.3346369
  52.0667796  75.7667727  54.0027453  52.2933798  75.9555198  52.5178522
  54.5263079  75.9032971  57.0393058  54.1621286  75.3763592  57.7505979
  55.3830195  75.5131440  56.8659543  54.1668566  70.9322870  52.0354406
  54.3342969  71.8003107  52.4024877  53.9765735  71.0950152  51.1115696
  56.9243899  79.3939849  63.7020237  56.6244623  80.2964888  63.5936044
  56.5794959  79.1272033  64.5541390  50.3756381  75.8453646  59.7356941
  49.4506877  75.7129860  59.9434633  50.6240794  76.6247865  60.2326884
  54.1457787  73.3880528  53.0201073  54.0257412  73.8337579  53.8586553
  53.4510376  73.7365846  52.4614611  47.7365192  75.4886920  60.5700730
  47.8657573  75.7421399  61.4840142  47.0562643  76.0814628  60.2505385
  51.9064679  86.1584170  56.6691204  51.8288709  87.1091995  56.7479685
  51.3026323  85.8130042  57.3266131  59.8442853  73.8602001  53.8481407
  60.7560709  74.0929388  53.6729105  59.3352500  74.4439045  53.2856486
  52.6528281  76.1397489  68.8870538  53.3942966  76.6782533  68.6105362
  51.9465267  76.7663777  69.0442090  58.1283621  78.2826629  67.4842700
  58.5366977  77.8409040  66.7397332  57.4060882  77.7079257  67.7376893
  54.4814691  73.2199236  64.8576257  55.3275886  73.6438649  65.0010906
  54.4213329  72.5632860  65.5514820  58.4512436  78.8427820  61.2394989
  57.8221298  79.0073534  60.5371057  58.0638098  79.2569429  62.0105953
  62.3301667  79.7782257  58.5939352  61.6452706  80.1581159  58.0436386
  62.4145517  80.3877584  59.3271300  54.0040397  78.5802228  58.5045074
  54.4678743  78.8589931  57.7149696  53.7397196  77.6785672  58.3218164
  50.8964479  78.1273709  61.4424837  51.4665836  78.5560978  60.8042322
  51.4872590  77.8456294  62.1409023  52.9409284  74.7025380  55.3134639
  53.6433327  75.1546424  55.7808565  52.6089912  74.0609199  55.9414532
  51.3889645  73.2937137  69.6885848  50.7588306  73.9753418  69.9221245
  51.2825733  73.1820218  68.7438987  46.6834617  72.9608933  60.6151772
  45.8933671  73.2166461  60.1391883  47.1745865  73.7757271  60.7203813
  60.6998427  80.3014172  63.3657053  61.5215871  79.8994359  63.0839735
  60.6960830  80.1982406  64.3173169  48.6349363  73.3253512  57.5735249
  47.8380526  73.4372206  58.0918745  48.4074955  73.6640164  56.7076140
  54.4655030  79.8498215  65.5217764  54.5299463  80.3118622  66.3575936
  53.7565954  79.2195580  65.6500074  44.9672320  73.2139423  63.0466763
  45.2180359  74.0986433  63.3124339  45.5031869  73.0344025  62.2741855
  54.1803048  81.5166323  55.3896744  54.0448723  82.3617858  55.8181592
  54.7212861  81.7185600  54.6262678  50.6670388  67.5957903  72.0511099
  50.2737333  67.0424101  72.7258744  51.4836528  67.9068481  72.4417617
  47.6332446  79.0341761  55.9624669  48.1456966  79.8285011  56.1130234
  48.2855158  78.3368051  55.8958271  49.4427330  82.1507517  58.0447422
  49.6193959  83.0725482  57.8568406  50.2384164  81.8365936  58.4741802
  48.7279687  74.1972149  67.9209586  48.6133202  73.2957406  68.2216685
  47.8724205  74.4435846  67.5694402  55.8071525  82.1389889  69.5197086
  55.3635379  81.3526268  69.2017991  56.4688738  82.3269040  68.8540977
  50.5658646  83.6685691  64.0457765  51.1166071  83.5402754  63.2734759
  49.7270122  83.9680580  63.6952658  57.9052763  82.4192689  67.5478487
  57.8871238  83.2401570  67.0558757  58.8272683  82.2946764  67.7728629
  54.3625817  79.9336819  68.3901996  54.8954154  79.1725107  68.1601304
  53.8339898  79.6410470  69.1326150  45.5981362  77.3630415  56.7384240
  46.4356584  77.7727423  56.5217947  45.7759630  76.4229857  56.7084434
  57.4945794  75.0305496  52.4268073  56.9792418  75.8010100  52.6656460
  57.2223103  74.3570632  53.0501134  62.4680069  77.7837850  54.3621246
  61.6909511  77.4449010  53.9176408  63.1471550  77.7890474  53.6876211
  57.2832098  72.9032588  54.2527854  56.9782233  73.2178737  55.1037997
  58.2362540  72.9814008  54.2955187  55.7278529  79.0622811  55.9020808
  55.1999891  78.3275571  55.5894045  55.2266032  79.8397487  55.6560776
  60.7071375  77.2571832  61.0187854  60.0495050  77.9471093  61.1067983
  61.5111775  77.6468264  61.3621841  59.5176834  75.6116204  59.0691796
  60.0308716  76.2446196  59.5713506  60.1678058  75.0117400  58.7035156
  50.7866844  71.7546938  52.2823305  49.9504156  72.0921625  52.6032579
  50.6471614  71.6195918  51.3450442  53.8731130  76.8803021  48.9055781
  52.9658191  76.6492275  49.1046930  54.3702162  76.0840641  49.0929762
  56.7799209  85.5900529  51.8252467  56.1060907  85.8932225  52.4337425
  57.1665030  86.3929609  51.4757924  55.9957665  73.0865660  61.3150136
  55.0780227  73.3080607  61.1571824  56.4117809  73.1611970  60.4561844
  56.7792713  74.4857076  56.4452817  57.5264532  74.9978473  56.1359939
  57.0484302  74.1641128  57.3057210  55.0519363  76.9815616  53.4279771
  54.1430582  76.6974649  53.5252241  55.0814447  77.4014695  52.5683078
  60.2838630  80.5922206  57.1970939  59.8300958  79.7513116  57.2536129
  59.6532597  81.2283604  57.5345719  59.2271550  71.5214192  58.4271606
  58.4894307  71.0091578  58.7581849  59.4798324  71.0814573  57.6154883
  58.7271570  82.4298702  58.1320757  59.0194544  82.9903760  57.4133122
  59.2370190  82.7227263  58.8873916  45.6207533  74.7021130  57.4094973
  45.4231933  74.1090491  56.6846040  45.0654197  74.3973341  58.1270912
  53.6004257  74.5944237  59.5289566  53.6552867  73.6418073  59.4532043
  52.7895459  74.7503676  60.0130865  54.7495451  78.5224360  50.7667850
  54.3114881  77.8060219  50.3073487  55.4905892  78.7500475  50.2052941
  51.5396617  73.2121297  57.2879945  50.7264483  73.5115467  57.6945137
  52.0355611  72.8176985  58.0054427  53.6905195  83.2079054  59.2214210
  53.6481374  83.4339900  58.2922742  54.6067894  82.9742428  59.3700011
  57.1370829  73.6763121  66.1194839  57.4920216  73.9034594  66.9789305
  57.7842960  74.0081498  65.4972094  62.8668566  76.7981557  56.8244168
  62.7286464  76.9883153  55.8965357  62.5104784  77.5600940  57.2812219
  62.8937945  78.8658084  61.8355440  63.3274452  78.7733373  62.6838494
  63.6069526  78.8415584  61.1975456  51.8070996  80.0842083  59.0176173
  52.6011594  79.5892403  58.8158748  51.0962688  79.5559946  58.6543878
  56.6265840  82.4660178  63.3688540  56.6802862  83.0351114  64.1366256
  55.7580622  82.6362063  63.0042577  48.1153759  74.2285164  55.0935925
  47.1851347  74.1669620  55.3105887  48.2111231  73.7061117  54.2972567
  49.5064234  72.1677734  64.8512991  50.1787287  71.9595096  64.2025640
  48.6794020  71.9699820  64.4118224  58.8168603  79.0588527  69.9429206
  58.6654110  78.8299079  69.0259289  58.8073283  80.0159129  69.9560551
  55.5853940  76.6320440  64.9275472  56.5146000  76.7831600  64.7544439
  55.1644970  76.7204461  64.0724119  54.3842272  80.6571105  62.6974010
  54.2453357  80.2889889  63.5699948  53.5956868  81.1718744  62.5257968
  54.9790424  85.7580201  54.0399546  55.1542179  85.2868244  54.8545169
  54.2923212  86.3845967  54.2680807  55.9347487  80.0352707  60.0862847
  55.5997319  79.9953477  60.9820497  55.4351433  79.3697423  59.6133258
  49.9091731  75.4420337  65.6115429  49.7711529  74.7100576  66.2126968
  50.8196654  75.3529237  65.3299616  58.8706678  77.3808742  50.3599907
  58.2535849  76.6555570  50.2632960  58.4023167  78.1418102  50.0166981
  52.5374031  75.1540297  65.0999108  53.2473650  74.5133489  65.0585727
  52.4943340  75.4053191  66.0225289  60.5260810  82.0907650  68.0205687
  60.4673356  81.4066870  67.3536271  60.9280329  82.8326640  67.5686313
  51.2502965  72.1405514  66.9194748  50.7140322  71.6896253  67.5716344
  50.6619674  72.2751423  66.1765212  49.5451509  88.9069564  60.8139406
  49.7848107  89.5388088  61.4918425  48.7020705  88.5557604  61.1004766
  50.6605224  71.5994166  49.4821211  49.7834691  71.4782967  49.1183458
  51.1362977  70.8080244  49.2300100  60.5278217  80.0547234  66.2519667
  59.6404996  79.7173156  66.3746066  61.0976768  79.3230265  66.4888433
  42.1807365  76.3871326  59.5762719  42.8678404  76.0733056  58.9883734
  42.0255493  77.2912690  59.3029970  54.0579371  84.7148686  63.2180910
  53.9849542  85.5203658  63.7300215  53.6156764  84.9140652  62.3928932
  53.8469150  83.9520456  56.7283732  53.0636672  84.4942136  56.8221956
  54.5461896  84.4694436  57.1277973  56.5178054  84.6135520  65.3739069
  57.2306027  85.2482985  65.3014971  56.0268083  84.7099386  64.5579071
  58.2395581  78.5186773  56.9456361  57.3051860  78.6388235  56.7761065
  58.4172250  77.6159240  56.6816371  53.7400769  71.9032469  59.0989622
  53.3698557  71.3503509  59.7870527  54.2359862  71.2990602  58.5464622
  61.6268133  74.3604092  57.4806395  62.0928585  75.1932084  57.4066698
  62.0775633  73.8949074  58.1851653  51.5689968  82.3629964  66.1944640
  52.2699427  82.9966447  66.3474034  51.0985083  82.7044695  65.4340279
  59.6944364  80.7047913  54.4792547  59.9704208  80.5904508  55.3886421
  58.8248862  80.3065398  54.4404720  56.3298428  84.9534264  58.1225361
  56.5120822  84.1355920  58.5853113  57.1531414  85.1701957  57.6850251
  56.6640593  83.8802449  55.3840409  57.1928360  83.3694904  54.7710571
  56.9268813  83.5644980  56.2485942  55.4178827  75.6594382  70.5063227
  54.7419464  75.5588512  71.1765603  56.2406461  75.5033596  70.9699225
  47.1657686  81.8966319  63.1275743  47.7511123  81.1510007  63.2603647
  46.9682524  82.2070275  64.0112406  50.0196341  84.9317566  58.1438185
  49.3506716  85.4163694  57.6602225  49.8809211  85.1786787  59.0581563
  41.7575341  74.4671919  61.8480186  41.7959440  73.9335510  62.6417304
  41.2515633  73.9407124  61.2291163  54.1601610  86.9661310  64.7420843
  54.7119918  87.1292931  65.5069929  54.5007803  87.5565747  64.0700868
  48.6118375  71.3859592  68.9915762  49.2390414  71.0036669  69.6053287
  47.7546294  71.1673794  69.3571455  59.0112484  81.7922567  70.5969498
  59.5552388  82.4052525  70.1024453  58.4299329  82.3502146  71.1136511
  45.3883918  73.1936021  54.9234117  45.6837359  72.2846700  54.8701171
  44.4871954  73.1723761  54.6015119  57.2969997  84.9143285  61.7284525
  57.1721136  84.1133025  61.2195471  57.9549088  85.4089479  61.2398495
  59.3604905  82.7152305  63.3564076  58.4135241  82.5957656  63.2842402
  59.7087679  81.8274803  63.4390337  56.3651339  82.5105021  59.5568428
  56.2176301  81.5821729  59.7375998  57.1904832  82.5325112  59.0725503
  59.9685461  83.3333580  60.6433301  60.8932008  83.1276442  60.5057752
  59.8000764  83.0849981  61.5522642  56.3612853  70.3642859  54.5500545
  56.5776467  71.2467497  54.2489373  55.8806920  69.9729073  53.8206187
  51.1012074  73.3228572  61.1271290  50.9556655  73.6368875  62.0195571
  50.6237278  73.9413473  60.5742188  59.7580777  83.8519248  55.9995392
  59.9317654  83.2865670  55.2469244  60.2509668  84.6520143  55.8174882
  45.5757737  75.8633917  64.0658951  45.0311205  76.6393725  64.1979225
  46.4537086  76.2104721  63.9078072  65.6120168  76.6155671  57.6185692
  66.0551314  75.8662996  57.2204815  64.7346678  76.6065807  57.2359424
  60.7455949  83.1686012  53.0992290  61.4406854  83.7892705  53.3179605
  61.0879099  82.3181363  53.3744668  46.3623758  74.9903813  66.9589108
  45.6205494  75.1386448  67.5453738  46.0416503  75.2512079  66.0955857
  62.6447372  80.6185718  54.6279621  63.1698696  80.9572990  53.9028941
  62.5569725  79.6832733  54.4442756  54.3067421  84.5319791  66.7569498
  54.6154547  84.2868938  67.6292197  55.1042903  84.7366430  66.2688368
  54.3288033  86.6857701  58.9874874  53.8893023  86.1934080  59.6807731
  55.0796150  86.1430669  58.7466949  46.8080372  82.8769242  58.9899502
  47.6338392  82.5773014  58.6098146  46.4574424  82.1076864  59.4389291
  51.7761905  82.2295710  61.0597176  51.1541915  81.5666415  60.7599404
  52.4466772  82.2556842  60.3770824  45.0088977  80.7955568  59.9488436
  44.1720885  80.3677743  59.7672437  44.9812623  80.9888012  60.8859227
  62.3341278  81.2518621  69.9330819  61.5436822  81.2342760  69.3935318
  62.0974633  81.7906915  70.6879856  51.3375412  80.7799633  54.5355636
  51.4863533  81.4635098  53.8822309  52.1441856  80.7604723  55.0505092
  49.0928045  76.8064811  55.5416705  48.8474087  75.9027141  55.7396915
  49.2623960  76.8081961  54.5996183  48.3623693  72.5393169  53.0402867
  47.6692938  72.6137523  52.3842903  48.1175445  71.7753512  53.5624384
  54.8370818  83.2747764  52.0067384  54.2644785  83.8937951  51.5537856
  55.4103611  83.8247125  52.5407306  58.0568077  83.5584914  53.1375966
  58.9898751  83.4930476  53.3408842  57.9691290  84.3941181  52.6790499
  60.6856094  82.8750784  50.0979914  60.6069726  82.5410648  50.9915672
  61.5065761  83.3672552  50.0971386  55.2217616  74.6108577  49.3483436
  56.1676721  74.4814785  49.4171854  54.8431861  73.8723238  49.8252865
  55.1056309  78.6626323  70.8084093  56.0259318  78.8404922  71.0024140
  55.0705892  77.7182368  70.6563793  53.4060533  72.5358553  49.2838322
  52.4991989  72.2391666  49.3601035  53.6836514  72.2388371  48.4172608
  44.3238474  73.8564916  59.7337368  44.0041258  73.0030224  59.4411742
  43.7771902  74.0713494  60.4895335  48.1018381  76.5727357  63.4506874
  48.3204391  77.5044465  63.4694908  48.5144155  76.2135332  64.2361678
  52.9746247  72.1460563  72.8409623  52.8742973  73.0954920  72.7721715
  52.7567789  71.8178802  71.9685694  52.1759318  69.3945488  49.4250301
  53.0378482  69.7200386  49.6846118  52.3609662  68.6076984  48.9123367
  44.1926734  77.4767828  61.7030490  43.4990205  77.0621781  61.1900444
  44.9399725  77.5188364  61.1063908  52.8377517  75.5757702  71.6574685
  52.3544598  76.3758062  71.8638574  52.9238456  75.5865647  70.7042129
  46.1063476  77.4086082  59.5796504  46.0834164  77.5073769  58.6278388
  46.4164113  78.2551232  59.9013671  48.7650854  79.4662237  63.6943119
  49.7194108  79.4346179  63.6273050  48.5663378  79.0052860  64.5093345
  49.3550236  78.0363353  66.2613917  50.1743125  78.5307431  66.2848754
  49.6287044  77.1195321  66.2331484  59.1116832  70.4274105  55.6241872
  58.2242687  70.7123756  55.4062067  59.5270822  70.2667868  54.7769149
  47.1201083  85.0081856  60.7113317  46.9855551  84.2482257  60.1451315
  46.7033145  85.7322756  60.2442106  58.2560046  80.1918780  49.7189892
  58.9595896  80.3968782  50.3347548  57.5322695  80.7595542  49.9838976
  59.0857856  75.9428641  55.8392162  59.0293058  76.3997192  54.9999795
  59.6386199  75.1819325  55.6615005  62.8962662  71.7318373  56.6642282
  62.6399596  71.3315008  57.4950489  62.2715530  72.4462167  56.5392421
  67.2075000  74.4714446  59.1713573  66.6474558  74.5407635  59.9445135
  66.6018503  74.2955431  58.4513069  50.2770209  85.9051173  60.9231759
  50.1602593  86.8496606  60.8210450  49.4562655  85.6024735  61.3117559
  60.1646743  80.6301309  51.7688352  60.9992347  80.1982507  51.5865827
  60.0031086  80.4583323  52.6965247  59.8192636  77.1333422  53.1344691
  59.7641439  76.9677694  52.1933135  59.1938691  77.8409455  53.2906881
  57.1338543  79.4382334  72.4598254  58.0029702  79.6122986  72.0984889
  56.6545294  80.2576751  72.3373983  51.3024723  86.5579435  64.1387688
  52.2051970  86.5903045  64.4554183  51.0762093  85.6279886  64.1534024
  53.0578325  85.3110422  60.7997766  52.1073956  85.3112283  60.6862139
  53.3610811  84.5643156  60.2833801  48.9482641  69.5169104  71.0581128
  49.8114103  69.1605908  71.2684452  48.3748052  69.1782998  71.7456532
  68.7931018  91.1470960  61.8643529  69.4309428  91.0277707  61.1606869
  68.6751861  92.0951804  61.9231481  65.6020725  91.0998388  61.8005054
  65.2639236  90.9839453  60.9125588  66.4710493  90.6989553  61.7806060
  61.4607540  92.9533864  57.7901944  60.8972406  92.8623801  57.0218232
  61.3459935  92.1333769  58.2704437  66.0840508  92.2533240  67.7591259
  66.0729148  91.8586038  66.8871763  66.2461147  91.5199312  68.3525030
  59.0071972  94.4485056  60.6286165  59.7993264  94.1075881  60.2132464
  59.2468622  94.5580031  61.5488318  67.0407099  96.6204832  53.1016409
  66.3895079  97.2058913  52.7150423  67.8351462  97.1511027  53.1611447
  60.9662726  93.7093969  53.5003544  61.7393602  93.1622956  53.3616420
  61.3188125  94.5738219  53.7118005  62.8047769  95.0370352  66.7070443
  62.5137635  95.9415982  66.5917109  63.4404753  95.0786879  67.4214513
  63.7303976  92.4147200  63.2971803  64.3267548  92.1903222  62.5828766
  63.7878947  91.6731946  63.8997251  63.3029004  89.8686635  51.1321994
  63.5554525  89.3468157  50.3705457  62.3653563  89.7052781  51.2348677
  68.5182364  94.3095264  53.6385394  67.8828197  94.3829891  54.3506298
  68.1879771  94.8988863  52.9604473  63.0225293  91.7714741  53.3346369
  62.9061551  91.0959645  54.0027453  63.1327553  91.2847115  52.5178522
  65.3656834  91.2324888  57.0393058  65.0015041  90.7055509  57.7505979
  66.2223950  90.8423358  56.8659543  65.0062321  86.2614788  52.0354406
  65.1736723  87.1295025  52.4024877  64.8159490  86.4242070  51.1115696
  67.7637654  94.7231767  63.7020237  67.4638377  95.6256806  63.5936044
  67.4188713  94.4563950  64.5541390  61.2150135  91.1745564  59.7356941
  60.2900632  91.0421778  59.9434633  61.4634549  91.9539783  60.2326884
  64.9851542  88.7172446  53.0201073  64.8651167  89.1629496  53.8586553
  64.2904130  89.0657763  52.4614611  58.5758946  90.8178837  60.5700730
  58.7051328  91.0713316  61.4840142  57.8956398  91.4106545  60.2505385
  62.7458434 101.4876087  56.6691204  62.6682463 102.4383913  56.7479685
  62.1420077 101.1421960  57.3266131  65.2375663  88.6603953  69.3252571
  64.4608998  89.2197873  69.3155436  65.8766227  89.1460736  69.8467441
  70.6836608  89.1893919  53.8481407  71.5954464  89.4221306  53.6729105
  70.1746255  89.7730963  53.2856486  63.4922036  91.4689406  68.8870538
  64.2336720  92.0074450  68.6105362  62.7859021  92.0955695  69.0442090
  68.9677375  93.6118547  67.4842700  69.3760731  93.1700957  66.7397332
  68.2454637  93.0371174  67.7376893  65.3208445  88.5491153  64.8576257
  66.1669641  88.9730567  65.0010906  65.2607083  87.8924778  65.5514820
  69.2906190  94.1719737  61.2394989  68.6615053  94.3365451  60.5371057
  68.9031852  94.5861347  62.0105953  73.1695422  95.1074175  58.5939352
  72.4846460  95.4873077  58.0436386  73.2539271  95.7169502  59.3271300
  68.4707891  86.2095522  66.5157430  68.2268823  86.9637582  65.9791706
  68.7467821  86.5880869  67.3504677  70.4246354  92.7534134  65.1934696
  70.6363249  93.3965894  64.5169077  70.3776102  91.9196451  64.7256626
  68.0272583  85.3651955  62.0971268  67.1657062  85.6633208  62.3888006
  68.0535017  85.5822354  61.1652301  64.8434152  93.9094145  58.5045074
  65.3072497  94.1881848  57.7149696  64.5790950  93.0077590  58.3218164
  61.7358233  93.4565627  61.4424837  62.3059590  93.8852895  60.8042322
  62.3266345  93.1748212  62.1409023  63.7803038  90.0317298  55.3134639
  64.4827081  90.4838341  55.7808565  63.4483667  89.3901117  55.9414532
  62.2283400  88.6229054  69.6885848  61.5982060  89.3045335  69.9221245
  62.1219487  88.5112136  68.7438987  57.5228372  88.2900850  60.6151772
  56.7327426  88.5458379  60.1391883  58.0139619  89.1049188  60.7203813
  71.5392182  95.6306090  63.3657053  72.3609625  95.2286277  63.0839735
  71.5354584  95.5274324  64.3173169  59.4743117  88.6545430  57.5735249
  58.6774281  88.7664124  58.0918745  59.2468710  88.9932082  56.7076140
  65.3048785  95.1790133  65.5217764  65.3693217  95.6410540  66.3575936
  64.5959709  94.5487498  65.6500074  55.8066075  88.5431341  63.0466763
  56.0574113  89.4278351  63.3124339  56.3425623  88.3635942  62.2741855
  65.0196803  96.8458240  55.3896744  64.8842477  97.6909776  55.8181592
  65.5606615  97.0477518  54.6262678  61.5064142  82.9249820  72.0511099
  61.1131088  82.3716019  72.7258744  62.3230283  83.2360399  72.4417617
  58.4726200  94.3633678  55.9624669  58.9850721  95.1576929  56.1130234
  59.1248913  93.6659969  55.8958271  60.2821085  97.4799435  58.0447422
  60.4587713  98.4017399  57.8568406  61.0777918  97.1657854  58.4741802
  64.4232103  84.3407699  69.6431356  65.1641817  84.9414852  69.5635818
  64.6550026  83.5985337  69.0849398  59.5673441  89.5264067  67.9209586
  59.4526956  88.6249324  68.2216685  58.7117959  89.7727763  67.5694402
  66.6465279  97.4681807  69.5197086  66.2029133  96.6818185  69.2017991
  67.3082493  97.6560957  68.8540977  61.4052400  98.9977608  64.0457765
  61.9559825  98.8694672  63.2734759  60.5663876  99.2972498  63.6952658
  68.7446517  97.7484607  67.5478487  68.7264992  98.5693488  67.0558757
  69.6666437  97.6238682  67.7728629  65.2019571  95.2628736  68.3901996
  65.7347908  94.5017024  68.1601304  64.6733652  94.9702388  69.1326150
  56.4375117  92.6922333  56.7384240  57.2750339  93.1019341  56.5217947
  56.6153385  91.7521775  56.7084434  68.3339549  90.3597413  52.4268073
  67.8186172  91.1302018  52.6656460  68.0616857  89.6862550  53.0501134
  65.9186660  85.2047114  57.4853311  65.0628256  84.8153965  57.3058950
  66.3313612  85.2839075  56.6253097  63.6928692  82.8232187  60.8911053
  64.5581689  82.6274996  60.5316942  63.7606201  82.5942539  61.8180409
  73.3073823  93.1129768  54.3621246  72.5303266  92.7740928  53.9176408
  73.9865304  93.1182391  53.6876211  68.1225852  88.2324505  54.2527854
  67.8175988  88.5470655  55.1037997  69.0756294  88.3105925  54.2955187
  66.5672284  94.3914729  55.9020808  66.0393646  93.6567488  55.5894045
  66.0659787  95.1689405  55.6560776  61.2991012  85.0534395  58.2627419
  61.8734763  84.8309577  57.5300612  61.8861994  85.1223090  59.0156021
  61.6260599  87.0838856  52.2823305  60.7897911  87.4213543  52.6032579
  61.4865368  86.9487836  51.3450442  63.6013679  81.9275644  56.9902489
  62.9478092  81.6124661  56.3659104  63.5594153  81.3051384  57.7162312
  64.7124884  92.2094939  48.9055781  63.8051946  91.9784193  49.1046930
  65.2095916  91.4132558  49.0929762  67.6192963 100.9192446  51.8252467
  66.9454662 101.2224143  52.4337425  68.0058785 101.7221527  51.4757924
  66.8351420  88.4157578  61.3150136  65.9173981  88.6372525  61.1571824
  67.2511563  88.4903888  60.4561844  67.6186467  89.8148993  56.4452817
  68.3658286  90.3270390  56.1359939  67.8878057  89.4933046  57.3057210
  65.8913118  92.3107534  53.4279771  64.9824337  92.0266567  53.5252241
  65.9208201  92.7306612  52.5683078  71.1232385  95.9214123  57.1970939
  70.6694712  95.0805033  57.2536129  70.4926352  96.5575522  57.5345719
  69.5665324  97.7590620  58.1320757  69.8588299  98.3195677  57.4133122
  70.0763945  98.0519181  58.8873916  56.4601288  90.0313048  57.4094973
  56.2625688  89.4382409  56.6846040  55.9047952  89.7265258  58.1270912
  64.4398012  89.9236155  59.5289566  64.4946621  88.9709991  59.4532043
  63.6289214  90.0795594  60.0130865  65.5889205  93.8516278  50.7667850
  65.1508635  93.1352137  50.3073487  66.3299646  94.0792392  50.2052941
  62.3790372  88.5413214  57.2879945  61.5658237  88.8407385  57.6945137
  62.8749366  88.1468903  58.0054427  64.5298949  98.5370971  59.2214210
  64.4875128  98.7631818  58.2922742  65.4461648  98.3034346  59.3700011
  67.9764583  89.0055039  66.1194839  68.3313971  89.2326512  66.9789305
  68.6236714  89.3373416  65.4972094  61.8704446  86.1131570  62.9041180
  62.5103826  85.9720329  62.2064143  61.0381977  85.8266083  62.5279782
  73.7331700  94.1950002  61.8355440  74.1668206  94.1025291  62.6838494
  74.4463280  94.1707502  61.1975456  62.6464750  95.4134000  59.0176173
  63.4405349  94.9184320  58.8158748  61.9356443  94.8851863  58.6543878
  67.4659595  97.7952096  63.3688540  67.5196617  98.3643032  64.1366256
  66.5974376  97.9653981  63.0042577  58.9547514  89.5577082  55.0935925
  58.0245102  89.4961537  55.3105887  59.0504986  89.0353035  54.2972567
  58.8733063  86.0831895  57.6814167  59.1339880  86.9977228  57.5723327
  59.6950235  85.6156337  57.8310780  60.3457988  87.4969652  64.8512991
  61.0181041  87.2887014  64.2025640  59.5187775  87.2991738  64.4118224
  74.5947249  94.2373702  64.3688325  74.7883139  95.1419513  64.6147600
  74.4947867  93.7781121  65.2026910  66.2483560  84.1231593  66.8678652
  65.6011475  84.8221543  66.7743129  67.0184575  84.5567737  67.2354901
  69.6562358  94.3880445  69.9429206  69.5047864  94.1590997  69.0259289
  69.6467037  95.3451046  69.9560551  66.4247694  91.9612358  64.9275472
  67.3539754  92.1123517  64.7544439  66.0038724  92.0496379  64.0724119
  65.2236026  95.9863022  62.6974010  65.0847112  95.6181807  63.5699948
  64.4350622  96.5010662  62.5257968  65.8184178 101.0872119  54.0399546
  65.9935934 100.6160162  54.8545169  65.1316966 101.7137885  54.2680807
  66.7741241  95.3644625  60.0862847  66.4391074  95.3245395  60.9820497
  66.2745187  94.6989341  59.6133258  60.7485485  90.7712255  65.6115429
  60.6105283  90.0392494  66.2126968  61.6590409  90.6821155  65.3299616
  69.7100433  92.7100659  50.3599907  69.0929604  91.9847487  50.2632960
  69.2416921  93.4710020  50.0166981  63.3767786  90.4832214  65.0999108
  64.0867404  89.8425406  65.0585727  63.3337094  90.7345109  66.0225289
  71.3654565  97.4199568  68.0205687  71.3067111  96.7358788  67.3536271
  71.7674083  98.1618558  67.5686313  62.0896720  87.4697432  66.9194748
  61.5534077  87.0188171  67.5716344  61.5013428  87.6043341  66.1765212
  60.3845263 104.2361481  60.8139406  60.6241862 104.8680006  61.4918425
  59.5414460 103.8849521  61.1004766  61.4998979  86.9286084  49.4821211
  60.6228445  86.8074884  49.1183458  61.9756732  86.1372162  49.2300100
  71.3671972  95.3839152  66.2519667  70.4798751  95.0465073  66.3746066
  71.9370523  94.6522183  66.4888433  53.0201119  91.7163243  59.5762719
  53.7072159  91.4024973  58.9883734  52.8649248  92.6204608  59.3029970
  57.8235841  86.6053440  64.0047742  57.7394030  85.9979109  63.2698152
  57.0018548  87.0962458  64.0057239  64.8973125 100.0440604  63.2180910
  64.8243297 100.8495575  63.7300215  64.4550518 100.2432570  62.3928932
  64.6862905  99.2812374  56.7283732  63.9030427  99.8234054  56.8221956
  65.3855650  99.7986354  57.1277973  67.9959555  85.0907003  59.3717937
  68.4928255  84.3376966  59.0519008  67.2246537  85.1271320  58.8061147
  67.3571809  99.9427438  65.3739069  68.0699781 100.5774903  65.3014971
  66.8661837 100.0391304  64.5579071  69.0789336  93.8478691  56.9456361
  68.1445614  93.9680153  56.7761065  69.2566004  92.9451157  56.6816371
  64.5794524  87.2324386  59.0989622  64.2092311  86.6795427  59.7870527
  65.0753616  86.6282520  58.5464622  62.4083722  97.6921881  66.1944640
  63.1093182  98.3258364  66.3474034  61.9378837  98.0336613  65.4340279
  70.5338118  96.0339831  54.4792547  70.8097962  95.9196426  55.3886421
  69.6642617  95.6357316  54.4404720  70.2085008  90.2466489  64.0197190
  69.5556459  90.4942396  63.3649643  70.5865388  89.4330627  63.6859668
  67.1692182 100.2826182  58.1225361  67.3514577  99.4647838  58.5853113
  67.9925168 100.4993874  57.6850251  67.5034348  99.2094367  55.3840409
  68.0322114  98.6986822  54.7710571  67.7662567  98.8936897  56.2485942
  66.2572581  90.9886300  70.5063227  65.5813218  90.8880429  71.1765603
  67.0800215  90.8325514  70.9699225  58.0051440  97.2258236  63.1275743
  58.5904877  96.4801924  63.2603647  57.8076279  97.5362193  64.0112406
  60.8590096 100.2609484  58.1438185  60.1900471 100.7455611  57.6602225
  60.7202965 100.5078704  59.0581563  52.5969095  89.7963837  61.8480186
  52.6353195  89.2627427  62.6417304  52.0909388  89.2699042  61.2291163
  64.9995364 102.2953227  64.7420843  65.5513672 102.4584849  65.5069929
  65.3401558 102.8857665  64.0700868  59.9759857  84.6428377  65.3442728
  60.0401184  85.5043208  64.9320126  59.9126978  84.0302379  64.6115087
  59.4512130  86.7151510  68.9915762  60.0784169  86.3328587  69.6053287
  58.5940049  86.4965712  69.3571455  69.8506239  97.1214485  70.5969498
  70.3946143  97.7344443  70.1024453  69.2693083  97.6794063  71.1136511
  56.2277673  88.5227939  54.9234117  56.5231114  87.6138617  54.8701171
  55.3265708  88.5015678  54.6015119  68.1363751 100.2435203  61.7284525
  68.0114891  99.4424943  61.2195471  68.7942843 100.7381396  61.2398495
  59.7571920  86.5983935  60.9061666  59.0358505  87.2119903  60.7669139
  60.5465175  87.1341700  60.8278312  70.1998660  98.0444223  63.3564076
  69.2528995  97.9249574  63.2842402  70.5481433  97.1566721  63.4390337
  62.5598233  83.9338362  67.1802317  63.0832635  84.1800658  67.9428627
  62.3410567  84.7658397  66.7605455  57.9565514  86.2042036  55.0473442
  57.6278220  85.3239415  54.8648548  58.3104885  86.1489705  55.9349831
  67.2045093  97.8396939  59.5568428  67.0570056  96.9113647  59.7375998
  68.0298587  97.8617030  59.0725503  61.0707337  86.4915006  55.4148920
  61.4103410  87.0200927  54.6927528  61.5179458  86.8295412  56.1907486
  70.8079215  98.6625498  60.6433301  71.7325762  98.4568359  60.5057752
  70.6394518  98.4141899  61.5522642  63.7650778  84.8752057  64.8651988
  63.4247599  84.0759870  65.2672668  63.0589785  85.1753768  64.2928821
  64.4167250  81.9601369  63.3179311  65.2393319  81.4861848  63.1958201
  64.6605314  82.7391853  63.8177997  63.0575485  84.9889628  53.6142213
  63.7783847  85.3670881  53.1105930  62.4340789  85.7078505  53.7177191
  67.2006607  85.6934777  54.5500545  67.4170222  86.5759415  54.2489373
  66.7200675  85.3020990  53.8206187  61.9405829  88.6520490  61.1271290
  61.7950410  88.9660793  62.0195571  61.4631033  89.2705390  60.5742188
  63.8002212  85.6423038  61.1752179  63.7863781  84.7464131  60.8384477
  64.5174640  85.6493702  61.8090465  65.6528342  86.0760378  63.2205307
  65.3946120  86.9977449  63.2189637  65.1213383  85.6790813  63.9105771
  70.5974531  99.1811165  55.9995392  70.7711409  98.6157588  55.2469244
  71.0903422  99.9812060  55.8174882  56.4151491  91.1925834  64.0658951
  55.8704959  91.9685642  64.1979225  57.2930841  91.5396639  63.9078072
  63.2039108  84.5237418  56.4439749  63.3255019  83.5954064  56.6430637
  62.9141150  84.5376104  55.5318065  76.4513922  91.9447588  57.6185692
  76.8945068  91.1954913  57.2204815  75.5740433  91.9357725  57.2359424
  71.5849704  98.4977930  53.0992290  72.2800608  99.1184622  53.3179605
  71.9272854  97.6473281  53.3744668  57.2017513  90.3195731  66.9589108
  56.4599249  90.4678366  67.5453738  56.8810257  90.5803996  66.0955857
  73.4841127  95.9477635  54.6279621  74.0092451  96.2864908  53.9028941
  73.3963479  95.0124651  54.4442756  65.1461176  99.8611709  66.7569498
  65.4548302  99.6160856  67.6292197  65.9436658 100.0658347  66.2688368
  65.1681788 102.0149619  58.9874874  64.7286778 101.5225997  59.6807731
  65.9189905 101.4722586  58.7466949  57.6474127  98.2061159  58.9899502
  58.4732146  97.9064931  58.6098146  57.2968179  97.4368782  59.4389291
  62.6155660  97.5587628  61.0597176  61.9935669  96.8958333  60.7599404
  63.2860527  97.5848760  60.3770824  55.8482732  96.1247486  59.9488436
  55.0114640  95.6969660  59.7672437  55.8206377  96.3179929  60.8859227
  62.6880187  86.0369416  70.6529682  62.7368343  86.9131538  70.2707452
  63.2302701  85.4946809  70.0801325  73.1735033  96.5810539  69.9330819
  72.3830577  96.5634678  69.3935318  72.9368387  97.1198833  70.6879856
  73.2932908  93.4303005  67.2463548  73.3430913  93.2653013  68.1879070
  73.1846831  92.5630264  66.8561428  62.1769167  96.1091551  54.5355636
  62.3257287  96.7927015  53.8822309  62.9835610  96.0896641  55.0505092
  64.9179476  86.7900788  67.4076041  64.0482785  87.0834354  67.1358629
  65.1538956  87.3741233  68.1283304  74.7951105  95.8499947  67.4905569
  74.5035913  96.2129927  68.3269030  74.1823236  95.1366955  67.3118901
  75.9946787  93.4152827  60.0108139  76.8293678  93.8542631  60.1745700
  76.1305916  92.9391480  59.1916385  59.9321800  92.1356729  55.5416705
  59.6867842  91.2319059  55.7396915  60.1017714  92.1373879  54.5996183
  59.2017447  87.8685086  53.0402867  58.5086692  87.9429441  52.3842903
  58.9569199  87.1045430  53.5624384  65.6764572  98.6039681  52.0067384
  65.1038539  99.2229869  51.5537856  66.2497366  99.1539043  52.5407306
  68.8961832  98.8876832  53.1375966  69.8292505  98.8222393  53.3408842
  68.8085045  99.7233098  52.6790499  71.5249849  98.2042702  50.0979914
  71.4463480  97.8702565  50.9915672  72.3459515  98.6964470  50.0971386
  66.0611371  89.9400494  49.3483436  67.0070475  89.8106702  49.4171854
  65.6825616  89.2015156  49.8252865  65.9450063  93.9918240  70.8084093
  66.8653073  94.1696839  71.0024140  65.9099646  93.0474286  70.6563793
  64.2454288  87.8650471  49.2838322  63.3385743  87.5683583  49.3601035
  64.5230269  87.5680289  48.4172608  55.1632228  89.1856834  59.7337368
  54.8435013  88.3322142  59.4411742  54.6165656  89.4005412  60.4895335
  58.9412136  91.9019275  63.4506874  59.1598146  92.8336383  63.4694908
  59.3537910  91.5427249  64.2361678  65.8616354  82.4087360  55.4382563
  65.0517082  82.0634445  55.8137809  66.5500770  82.0994904  56.0270174
  63.8140001  87.4752481  72.8409623  63.7136728  88.4246838  72.7721715
  63.5961543  87.1470720  71.9685694  63.0153072  84.7237406  49.4250301
  63.8772236  85.0492304  49.6846118  63.2003417  83.9368902  48.9123367
  55.0320488  92.8059745  61.7030490  54.3383960  92.3913698  61.1900444
  55.7793479  92.8480282  61.1063908  63.6771271  90.9049620  71.6574685
  63.1938353  91.7049980  71.8638574  63.7632210  90.9157564  70.7042129
  56.9457231  92.7377999  59.5796504  56.9227919  92.8365687  58.6278388
  57.2557867  93.5843150  59.9013671  59.6044609  94.7954154  63.6943119
  60.5587862  94.7638097  63.6273050  59.4057132  94.3344778  64.5093345
  60.1943991  93.3655270  66.2613917  61.0136880  93.8599349  66.2848754
  60.4680798  92.4487238  66.2331484  69.9510587  85.7566023  55.6241872
  69.0636442  86.0415673  55.4062067  70.3664576  85.5959786  54.7769149
  57.9594837 100.3373774  60.7113317  57.8249305  99.5774175  60.1451315
  57.5426900 101.0614674  60.2442106  69.0953800  95.5210697  49.7189892
  69.7989651  95.7260700  50.3347548  68.3716449  96.0887459  49.9838976
  61.1163963 101.2343091  60.9231759  60.9996347 102.1788523  60.8210450
  60.2956410 100.9316652  61.3117559  71.0040498  95.9593226  51.7688352
  71.8386102  95.5274425  51.5865827  70.8424841  95.7875240  52.6965247
  70.6586390  92.4625340  53.1344691  70.6035194  92.2969611  52.1933135
  70.0332445  93.1701373  53.2906881  55.4478905  87.6993404  66.9606114
  56.0937769  87.1892358  67.4493339  55.2396056  88.4362086  67.5349539
  67.9732297  94.7674252  72.4598254  68.8423457  94.9414904  72.0984889
  67.4939049  95.5868668  72.3373983  63.9682515  81.9633449  52.7130010
  63.9561185  82.9075289  52.8698281  64.8605937  81.7803594  52.4189471
  62.1418477 101.8871353  64.1387688  63.0445724 101.9194963  64.4554183
  61.9155847 100.9571804  64.1534024  63.8972079 100.6402339  60.7997766
  62.9467710 100.6404201  60.6862139  64.2004566  99.8935074  60.2833801
  67.7834635  78.5576225  56.9675947  67.0167031  78.0034712  57.1132629
  68.1945340  78.6298094  57.8290098  59.7876396  84.8461021  71.0581128
  60.6507858  84.4897826  71.2684452  59.2141807  84.5074916  71.7456532
  79.6324773 106.4762878  61.8643529  80.2703183 106.3569625  61.1606869
  79.5145616 107.4243722  61.9231481  76.4414479 106.4290306  61.8005054
  76.1032991 106.3131370  60.9125588  77.3104247 106.0281471  61.7806060
  72.3001295 108.2825782  57.7901944  71.7366160 108.1915719  57.0218232
  72.1853690 107.4625687  58.2704437  76.9234262 107.5825157  67.7591259
  76.9122903 107.1877956  66.8871763  77.0854902 106.8491230  68.3525030
  69.8465727 109.7776974  60.6286165  70.6387019 109.4367798  60.2132464
  70.0862377 109.8871949  61.5488318  77.8800854 111.9496750  53.1016409
  77.2288833 112.5350830  52.7150423  78.6745216 112.4802945  53.1611447
  71.8056481 109.0385887  53.5003544  72.5787357 108.4914874  53.3616420
  72.1581880 109.9030136  53.7118005  73.6441523 110.3662269  66.7070443
  73.3531389 111.2707900  66.5917109  74.2798508 110.4078797  67.4214513
  74.5697730 107.7439118  63.2971803  75.1661302 107.5195140  62.5828766
  74.6272702 107.0023863  63.8997251  74.1422759 105.1978553  51.1321994
  74.3948279 104.6760074  50.3705457  73.2047318 105.0344699  51.2348677
  79.1866041 104.2014331  58.9396737  79.9729131 103.7833755  58.5887154
  79.4504746 105.1060424  59.1078385  79.3576119 109.6387182  53.6385394
  78.7221952 109.7121808  54.3506298  79.0273525 110.2280781  52.9604473
  84.5874469 104.1389565  59.8429715  85.3199640 103.5688781  60.0767545
  83.8313824 103.7511165  60.2836221  73.8619047 107.1006659  53.3346369
  73.7455305 106.4251562  54.0027453  73.9721307 106.6139033  52.5178522
  76.2050588 106.5616806  57.0393058  75.8408795 106.0347427  57.7505979
  77.0617704 106.1715275  56.8659543  82.1099889  97.8511139  64.3024324
  81.7783214  98.7206550  64.0785539  81.5145502  97.5347423  64.9818354
  75.8456075 101.5906706  52.0354406  76.0130478 102.4586942  52.4024877
  75.6553244 101.7533988  51.1115696  78.6031408 110.0523685  63.7020237
  78.3032131 110.9548724  63.5936044  78.2582468 109.7855868  64.5541390
  72.0543890 106.5037482  59.7356941  71.1294386 106.3713696  59.9434633
  72.3028303 107.2831701  60.2326884  82.0028552 102.5706225  61.3817674
  81.0945430 102.5021633  61.0876435  81.9516148 103.0478170  62.2099500
  75.8245296 104.0464363  53.0201073  75.7044921 104.4921414  53.8586553
  75.1297884 104.3949681  52.4614611  69.4152701 106.1470755  60.5700730
  69.5445082 106.4005234  61.4840142  68.7350152 106.7398463  60.2505385
  73.5852188 116.8168005  56.6691204  73.5076218 117.7675830  56.7479685
  72.9813832 116.4713878  57.3266131  76.0769418 103.9895871  69.3252571
  75.3002752 104.5489791  69.3155436  76.7159981 104.4752654  69.8467441
  81.5230362 104.5185837  53.8481407  82.4348218 104.7513223  53.6729105
  81.0140009 105.1022881  53.2856486  74.3315790 106.7981324  68.8870538
  75.0730475 107.3366368  68.6105362  73.6252776 107.4247613  69.0442090
  79.8071130 108.9410464  67.4842700  80.2154486 108.4992875  66.7397332
  79.0848391 108.3663092  67.7376893  76.1602200 103.8783071  64.8576257
  77.0063395 104.3022485  65.0010906  76.1000838 103.2216695  65.5514820
  80.1299945 109.5011655  61.2394989  79.5008807 109.6657369  60.5371057
  79.7425607 109.9153265  62.0105953  84.0089176 110.4366093  58.5939352
  83.3240215 110.8164994  58.0436386  84.0933026 111.0461419  59.3271300
  79.3101645 101.5387439  66.5157430  79.0662577 102.2929500  65.9791706
  79.5861576 101.9172787  67.3504677  81.2640108 108.0826052  65.1934696
  81.4757003 108.7257812  64.5169077  81.2169856 107.2488368  64.7256626
  78.8666337 100.6943873  62.0971268  78.0050816 100.9925126  62.3888006
  78.8928772 100.9114271  61.1652301  75.6827906 109.2386063  58.5045074
  76.1466252 109.5173766  57.7149696  75.4184705 108.3369508  58.3218164
  72.5751988 108.7857545  61.4424837  73.1453345 109.2144813  60.8042322
  73.1660099 108.5040129  62.1409023  74.6196793 105.3609215  55.3134639
  75.3220836 105.8130259  55.7808565  74.2877421 104.7193034  55.9414532
  73.0677154 103.9520972  69.6885848  72.4375815 104.6337253  69.9221245
  72.9613242 103.8404054  68.7438987  68.3622126 103.6192768  60.6151772
  67.5721180 103.8750297  60.1391883  68.8533374 104.4341106  60.7203813
  82.3785936 110.9598007  63.3657053  83.2003380 110.5578195  63.0839735
  82.3748339 110.8566241  64.3173169  70.3136872 103.9837347  57.5735249
  69.5168035 104.0956042  58.0918745  70.0862464 104.3224000  56.7076140
  76.1442539 110.5082051  65.5217764  76.2086972 110.9702458  66.3575936
  75.4353463 109.8779415  65.6500074  66.6459829 103.8723259  63.0466763
  66.8967868 104.7570268  63.3124339  67.1819378 103.6927860  62.2741855
  90.4691929 107.3036756  59.7142025  89.7155637 106.7344154  59.5586029
  90.6039470 107.2699420  60.6612659  75.8590557 112.1750158  55.3896744
  75.7236232 113.0201694  55.8181592  76.4000370 112.3769436  54.6262678
  72.3457897  98.2541738  72.0511099  71.9524842  97.7007936  72.7258744
  73.1624037  98.5652316  72.4417617  69.3119955 109.6925596  55.9624669
  69.8244475 110.4868846  56.1130234  69.9642667 108.9951887  55.8958271
  71.1214839 112.8091352  58.0447422  71.2981468 113.7309317  57.8568406
  71.9171673 112.4949772  58.4741802  75.2625858  99.6699617  69.6431356
  76.0035571 100.2706770  69.5635818  75.4943781  98.9277255  69.0849398
  70.4067196 104.8555984  67.9209586  70.2920711 103.9541241  68.2216685
  69.5511714 105.1019681  67.5694402  77.4859034 112.7973725  69.5197086
  77.0422888 112.0110103  69.2017991  78.1476247 112.9852875  68.8540977
  72.2446155 114.3269526  64.0457765  72.7953580 114.1986590  63.2734759
  71.4057631 114.6264415  63.6952658  79.5840272 113.0776524  67.5478487
  79.5658747 113.8985406  67.0558757  80.5060192 112.9530600  67.7728629
  76.0413326 110.5920654  68.3901996  76.5741663 109.8308942  68.1601304
  75.5127407 110.2994306  69.1326150  67.2768871 108.0214250  56.7384240
  68.1144093 108.4311259  56.5217947  67.4547139 107.0813693  56.7084434
  79.1733303 105.6889331  52.4268073  78.6579927 106.4593936  52.6656460
  78.9010612 105.0154467  53.0501134  76.7580414 100.5339032  57.4853311
  75.9022011 100.1445882  57.3058950  77.1707366 100.6130993  56.6253097
  78.2879561  98.0685375  61.8844871  77.7844357  98.0315510  61.0712676
  78.5810168  98.9778118  61.9441527  74.5322447  98.1524105  60.8911053
  75.3975444  97.9566914  60.5316942  74.5999956  97.9234457  61.8180409
  84.1467578 108.4421686  54.3621246  83.3697020 108.1032845  53.9176408
  84.8259059 108.4474309  53.6876211  78.9619607 103.5616423  54.2527854
  78.6569742 103.8762572  55.1037997  79.9150049 103.6397843  54.2955187
  77.4066038 109.7206646  55.9020808  76.8787400 108.9859406  55.5894045
  76.9053541 110.4981323  55.6560776  82.3858884 107.9155667  61.0187854
  81.7282559 108.6054928  61.1067983  83.1899284 108.3052099  61.3621841
  72.1384766 100.3826313  58.2627419  72.7128518 100.1601494  57.5300612
  72.7255748 100.4515007  59.0156021  81.1964343 106.2700040  59.0691796
  81.7096225 106.9030031  59.5713506  81.8465567 105.6701235  58.7035156
  72.4654353 102.4130774  52.2823305  71.6291665 102.7505460  52.6032579
  72.3259123 102.2779754  51.3450442  74.4407434  97.2567562  56.9902489
  73.7871846  96.9416579  56.3659104  74.3987908  96.6343302  57.7162312
  75.5518639 107.5386857  48.9055781  74.6445700 107.3076110  49.1046930
  76.0489671 106.7424476  49.0929762  78.4586717 116.2484364  51.8252467
  77.7848416 116.5516061  52.4337425  78.8452539 117.0513444  51.4757924
  77.6745174 103.7449495  61.3150136  76.7567735 103.9664442  61.1571824
  78.0905318 103.8195806  60.4561844  78.4580222 105.1440911  56.4452817
  79.2052041 105.6562308  56.1359939  78.7271811 104.8224964  57.3057210
  76.7306872 107.6399452  53.4279771  75.8218091 107.3558484  53.5252241
  76.7601956 108.0598530  52.5683078  81.9626139 111.2506041  57.1970939
  81.5088467 110.4096951  57.2536129  81.3320106 111.8867439  57.5345719
  80.9059059 102.1798027  58.4271606  80.1681816 101.6675413  58.7581849
  81.1585833 101.7398409  57.6154883  80.4059079 113.0882538  58.1320757
  80.6982053 113.6487595  57.4133122  80.9157699 113.3811099  58.8873916
  67.2995042 105.3604966  57.4094973  67.1019442 104.7674326  56.6846040
  66.7441706 105.0557176  58.1270912  75.2791766 105.2528072  59.5289566
  75.3340376 104.3001909  59.4532043  74.4682968 105.4087511  60.0130865
  76.4282960 109.1808195  50.7667850  75.9902390 108.4644054  50.3073487
  77.1693401 109.4084310  50.2052941  73.2184126 103.8705132  57.2879945
  72.4051992 104.1699302  57.6945137  73.7143120 103.4760821  58.0054427
  75.3692704 113.8662889  59.2214210  75.3268883 114.0923735  58.2922742
  76.2855403 113.6326263  59.3700011  78.8158338 104.3346956  66.1194839
  79.1707725 104.5618430  66.9789305  79.4630469 104.6665333  65.4972094
  84.5456075 107.4565392  56.8244168  84.4073973 107.6466988  55.8965357
  84.1892293 108.2184775  57.2812219  72.7098201 101.4423487  62.9041180
  73.3497580 101.3012247  62.2064143  71.8775731 101.1558001  62.5279782
  84.5725454 109.5241919  61.8355440  85.0061961 109.4317208  62.6838494
  85.2857035 109.4999420  61.1975456  73.4858505 110.7425918  59.0176173
  74.2799103 110.2476238  58.8158748  72.7750197 110.2143781  58.6543878
  78.3053349 113.1244013  63.3688540  78.3590371 113.6934950  64.1366256
  77.4368131 113.2945898  63.0042577  69.7941268 104.8869000  55.0935925
  68.8638856 104.8253455  55.3105887  69.8898740 104.3644952  54.2972567
  69.7126817 101.4123812  57.6814167  69.9733634 102.3269146  57.5723327
  70.5343990 100.9448255  57.8310780  71.1851743 102.8261570  64.8512991
  71.8574796 102.6178932  64.2025640  70.3581529 102.6283656  64.4118224
  85.4341004 109.5665620  64.3688325  85.6276894 110.4711430  64.6147600
  85.3341622 109.1073039  65.2026910  77.0877315  99.4523511  66.8678652
  76.4405230 100.1513460  66.7743129  77.8578330  99.8859654  67.2354901
  80.4956112 109.7172363  69.9429206  80.3441619 109.4882914  69.0259289
  80.4860792 110.6742964  69.9560551  77.2641449 107.2904275  64.9275472
  78.1933509 107.4415435  64.7544439  76.8432479 107.3788296  64.0724119
  76.0629781 111.3154940  62.6974010  75.9240866 110.9473724  63.5699948
  75.2744377 111.8302579  62.5257968  76.6577933 116.4164036  54.0399546
  76.8329688 115.9452080  54.8545169  75.9710721 117.0429803  54.2680807
  77.6134996 110.6936543  60.0862847  77.2784828 110.6537313  60.9820497
  77.1138941 110.0281258  59.6133258  71.5879240 106.1004173  65.6115429
  71.4499038 105.3684411  66.2126968  72.4984163 106.0113073  65.3299616
  80.5494187 108.0392577  50.3599907  79.9323358 107.3139405  50.2632960
  80.0810676 108.8001937  50.0166981  74.2161540 105.8124132  65.0999108
  74.9261159 105.1717324  65.0585727  74.1730849 106.0637027  66.0225289
  82.2048319 112.7491485  68.0205687  82.1460865 112.0650705  67.3536271
  82.6067838 113.4910475  67.5686313  72.9290474 102.7989350  66.9194748
  72.3927831 102.3480088  67.5716344  72.3407183 102.9335259  66.1765212
  71.2239018 119.5653399  60.8139406  71.4635616 120.1971923  61.4918425
  70.3808214 119.2141439  61.1004766  72.3392733 102.2578001  49.4821211
  71.4622200 102.1366802  49.1183458  72.8150486 101.4664080  49.2300100
  82.2065726 110.7131069  66.2519667  81.3192505 110.3756991  66.3746066
  82.7764277 109.9814100  66.4888433  63.8594874 107.0455161  59.5762719
  64.5465913 106.7316891  58.9883734  63.7043002 107.9496526  59.3029970
  68.6629596 101.9345358  64.0047742  68.5787784 101.3271027  63.2698152
  67.8412302 102.4254376  64.0057239  75.7366880 115.3732522  63.2180910
  75.6637051 116.1787493  63.7300215  75.2944273 115.5724487  62.3928932
  75.5256659 114.6104292  56.7283732  74.7424181 115.1525972  56.8221956
  76.2249405 115.1278271  57.1277973  78.8353310 100.4198921  59.3717937
  79.3322009  99.6668883  59.0519008  78.0640291 100.4563238  58.8061147
  86.6883067 106.1239287  61.0136229  86.6772943 107.0064002  60.6430162
  85.8200446 105.7710837  60.8190766  78.1965563 115.2719356  65.3739069
  78.9093536 115.9066820  65.3014971  77.7055592 115.3683222  64.5579071
  79.9183090 109.1770608  56.9456361  78.9839369 109.2972071  56.7761065
  80.0959759 108.2743075  56.6816371  75.4188278 102.5616304  59.0989622
  75.0486066 102.0087344  59.7870527  75.9147371 101.9574438  58.5464622
  83.3055642 105.0187928  57.4806395  83.7716094 105.8515919  57.4066698
  83.7563142 104.5532909  58.1851653  73.2477477 113.0213799  66.1944640
  73.9486936 113.6550282  66.3474034  72.7772592 113.3628531  65.4340279
  81.3731873 111.3631749  54.4792547  81.6491717 111.2488343  55.3886421
  80.5036371 110.9649234  54.4404720  81.0478763 105.5758406  64.0197190
  80.3950213 105.8234314  63.3649643  81.4259143 104.7622545  63.6859668
  78.0085937 115.6118100  58.1225361  78.1908331 114.7939756  58.5853113
  78.8318923 115.8285792  57.6850251  78.3428102 114.5386285  55.3840409
  78.8715869 114.0278739  54.7710571  78.6056322 114.2228815  56.2485942
  77.0966336 106.3178218  70.5063227  76.4206973 106.2172347  71.1765603
  77.9193970 106.1617431  70.9699225  68.8445195 112.5550154  63.1275743
  69.4298632 111.8093842  63.2603647  68.6470033 112.8654111  64.0112406
  71.6983850 115.5901401  58.1438185  71.0294225 116.0747529  57.6602225
  71.5596720 115.8370622  59.0581563  63.4362850 105.1255754  61.8480186
  63.4746949 104.5919345  62.6417304  62.9303142 104.5990960  61.2291163
  75.8389119 117.6245145  64.7420843  76.3907427 117.7876767  65.5069929
  76.1795312 118.2149583  64.0700868  70.8153612  99.9720295  65.3442728
  70.8794938 100.8335126  64.9320126  70.7520732  99.3594296  64.6115087
  70.2905884 102.0443427  68.9915762  70.9177923 101.6620505  69.6053287
  69.4333803 101.8257629  69.3571455  80.6899993 112.4506403  70.5969498
  81.2339897 113.0636361  70.1024453  80.1086838 113.0085981  71.1136511
  67.0671427 103.8519856  54.9234117  67.3624868 102.9430535  54.8701171
  66.1659463 103.8307596  54.6015119  78.9757506 115.5727121  61.7284525
  78.8508645 114.7716860  61.2195471  79.6336597 116.0673314  61.2398495
  70.5965674 101.9275853  60.9061666  69.8752260 102.5411821  60.7669139
  71.3858930 102.4633618  60.8278312  81.0392414 113.3736141  63.3564076
  80.0922750 113.2541492  63.2842402  81.3875187 112.4858639  63.4390337
  73.3991988  99.2630280  67.1802317  73.9226390  99.5092576  67.9428627
  73.1804321 100.0950314  66.7605455  68.7959269 101.5333954  55.0473442
  68.4671975 100.6531333  54.8648548  69.1498639 101.4781623  55.9349831
  78.0438848 113.1688857  59.5568428  77.8963810 112.2405564  59.7375998
  78.8692341 113.1908948  59.0725503  71.9101092 101.8206924  55.4148920
  72.2497164 102.3492845  54.6927528  72.3573212 102.1587330  56.1907486
  81.6472970 113.9917416  60.6433301  82.5719517 113.7860277  60.5057752
  81.4788273 113.7433817  61.5522642  74.6044533 100.2043975  64.8651988
  74.2641353  99.4051788  65.2672668  73.8983539 100.5045685  64.2928821
  75.2561005  97.2893287  63.3179311  76.0787074  96.8153765  63.1958201
  75.4999068  98.0683771  63.8177997  73.8969239 100.3181546  53.6142213
  74.6177602 100.6962798  53.1105930  73.2734543 101.0370422  53.7177191
  78.0400362 101.0226694  54.5500545  78.2563976 101.9051332  54.2489373
  77.5594429 100.6312908  53.8206187  72.7799583 103.9812408  61.1271290
  72.6344164 104.2952711  62.0195571  72.3024787 104.5997308  60.5742188
  74.6395966 100.9714956  61.1752179  74.6257535 100.0756049  60.8384477
  75.3568394 100.9785619  61.8090465  76.4922097 101.4052296  63.2205307
  76.2339875 102.3269367  63.2189637  75.9607137 101.0082730  63.9105771
  81.4368286 114.5103083  55.9995392  81.6105163 113.9449505  55.2469244
  81.9297177 115.3103978  55.8174882  67.2545246 106.5217752  64.0658951
  66.7098714 107.2977560  64.1979225  68.1324595 106.8688557  63.9078072
  74.0432862  99.8529336  56.4439749  74.1648773  98.9245982  56.6430637
  73.7534905  99.8668022  55.5318065  76.9124053  97.5384246  59.5806469
  76.9345749  97.6023579  58.6258449  77.3292112  96.6988755  59.7746975
  87.2907677 107.2739506  57.6185692  87.7338823 106.5246831  57.2204815
  86.4134187 107.2649642  57.2359424  82.4243458 113.8269847  53.0992290
  83.1194363 114.4476540  53.3179605  82.7666608 112.9765199  53.3744668
  68.0411267 105.6487648  66.9589108  67.2993003 105.7970284  67.5453738
  67.7204012 105.9095914  66.0955857  84.3234881 111.2769553  54.6279621
  84.8486205 111.6156826  53.9028941  84.2357234 110.3416568  54.4442756
  75.9854930 115.1903627  66.7569498  76.2942056 114.9452773  67.6292197
  76.7830412 115.3950265  66.2688368  76.0075542 117.3441536  58.9874874
  75.5680532 116.8517915  59.6807731  76.7583659 116.8014504  58.7466949
  68.4867881 113.5353077  58.9899502  69.3125901 113.2356849  58.6098146
  68.1361933 112.7660700  59.4389291  73.4549414 112.8879545  61.0597176
  72.8329424 112.2250250  60.7599404  74.1254281 112.9140677  60.3770824
  66.6876486 111.4539404  59.9488436  65.8508394 111.0261578  59.7672437
  66.6600132 111.6471847  60.8859227  73.5273942 101.3661333  70.6529682
  73.5762097 102.2423456  70.2707452  74.0696456 100.8238726  70.0801325
  84.0128787 111.9102457  69.9330819  83.2224331 111.8926595  69.3935318
  83.7762142 112.4490750  70.6879856  84.1326662 108.7594923  67.2463548
  84.1824667 108.5944930  68.1879070  84.0240586 107.8922182  66.8561428
  73.0162921 111.4383469  54.5355636  73.1651042 112.1218933  53.8822309
  73.8229365 111.4188559  55.0505092  81.4230425 104.7425851  68.5622854
  82.3240288 104.6032316  68.2706852  81.4978399 104.9080306  69.5021032
  75.7573230 102.1192706  67.4076041  74.8876540 102.4126272  67.1358629
  75.9932711 102.7033151  68.1283304  85.6344859 111.1791864  67.4905569
  85.3429668 111.5421845  68.3269030  85.0216991 110.4658873  67.3118901
  86.8340542 108.7444744  60.0108139  87.6687433 109.1834548  60.1745700
  86.9699670 108.2683397  59.1916385  83.8832048 106.3024479  65.9585627
  84.3586169 106.4952125  65.1504478  82.9597613 106.3583665  65.7129011
  70.7715554 107.4648646  55.5416705  70.5261596 106.5610976  55.7396915
  70.9411469 107.4665797  54.5996183  78.4612264  98.3372323  64.9241461
  78.9794208  99.0733350  64.5987950  78.1067397  98.6436316  65.7588220
  70.0411202 103.1977004  53.0402867  69.3480447 103.2721359  52.3842903
  69.7962954 102.4337347  53.5624384  76.5158327 113.9331599  52.0067384
  75.9432294 114.5521786  51.5537856  77.0891120 114.4830961  52.5407306
  82.5833717 103.1790239  64.1913933  83.5351139 103.2788337  64.2126157
  82.4137167 102.3868508  64.7012017  80.6048096 100.2645822  64.3773334
  80.0098028 100.5450835  63.6819822  80.3197793 100.7539723  65.1490075
  79.7355586 114.2168749  53.1375966  80.6686260 114.1514311  53.3408842
  79.6478799 115.0525016  52.6790499  82.3643603 113.5334620  50.0979914
  82.2857235 113.1994483  50.9915672  83.1853270 114.0256387  50.0971386
  85.0621794 106.3996359  63.3056232  85.0298114 105.4612360  63.4915916
  85.6722418 106.4780396  62.5722057  76.9005125 105.2692412  49.3483436
  77.8464230 105.1398620  49.4171854  76.5219370 104.5307074  49.8252865
  85.2116283 103.1907402  63.3514515  84.6955331 102.4065859  63.1644444
  86.0956231 102.8626119  63.5161035  90.8798344 107.4612366  62.4462269
  91.6101733 107.1997654  63.0069972  90.2705290 106.7241088  62.4864337
  88.9613641 105.6020228  63.0436720  88.2346805 105.4676193  62.4353212
  88.5460928 105.9097057  63.8493438  76.7843818 109.3210158  70.8084093
  77.7046827 109.4988757  71.0024140  76.7493401 108.3766203  70.6563793
  75.0848042 103.1942388  49.2838322  74.1779498 102.8975501  49.3601035
  75.3624023 102.8972206  48.4172608  66.0025983 104.5148752  59.7337368
  65.6828767 103.6614060  59.4411742  65.4559411 104.7297330  60.4895335
  69.7805890 107.2311193  63.4506874  69.9991900 108.1628300  63.4694908
  70.1931664 106.8719167  64.2361678  76.7010108  97.7379278  55.4382563
  75.8910836  97.3926363  55.8137809  77.3894525  97.4286822  56.0270174
  78.6300656  96.8157325  57.0606860  79.1831695  97.2352778  57.7196883
  78.8670743  95.8893073  57.1029816  74.6533756 102.8044398  72.8409623
  74.5530482 103.7538755  72.7721715  74.4355298 102.4762637  71.9685694
  73.8546827 100.0529323  49.4250301  74.7165991 100.3784222  49.6846118
  74.0397171  99.2660819  48.9123367  65.8714243 108.1351663  61.7030490
  65.1777714 107.7205616  61.1900444  66.6187234 108.1772200  61.1063908
  74.5165026 106.2341537  71.6574685  74.0332107 107.0341897  71.8638574
  74.6025965 106.2449482  70.7042129  67.7850985 108.0669917  59.5796504
  67.7621673 108.1657604  58.6278388  68.0951622 108.9135068  59.9013671
  70.4438363 110.1246072  63.6943119  71.3981617 110.0930014  63.6273050
  70.2450887 109.6636696  64.5093345  71.0337745 108.6947188  66.2613917
  71.8530634 109.1891267  66.2848754  71.3074553 107.7779156  66.2331484
  80.7904341 101.0857940  55.6241872  79.9030196 101.3707591  55.4062067
  81.2058331 100.9251704  54.7769149  68.7988592 115.6665691  60.7113317
  68.6643060 114.9066092  60.1451315  68.3820654 116.3906591  60.2442106
  79.9347555 110.8502615  49.7189892  80.6383405 111.0552617  50.3347548
  79.2110204 111.4179377  49.9838976  80.7645365 106.6012476  55.8392162
  80.7080567 107.0581028  54.9999795  81.3173708 105.8403161  55.6615005
  84.5750171 102.3902208  56.6642282  84.3187105 101.9898844  57.4950489
  83.9503039 103.1046002  56.5392421  88.8862509 105.1298281  59.1713573
  88.3262067 105.1991471  59.9445135  88.2806012 104.9539266  58.4513069
  71.9557718 116.5635008  60.9231759  71.8390102 117.5080441  60.8210450
  71.1350164 116.2608570  61.3117559  81.8434252 111.2885144  51.7688352
  82.6779856 110.8566343  51.5865827  81.6818595 111.1167158  52.6965247
  81.4980144 107.7917257  53.1344691  81.4428948 107.6261529  52.1933135
  80.8726200 108.4993290  53.2906881  66.2872659 103.0285322  66.9606114
  66.9331523 102.5184276  67.4493339  66.0789811 103.7654004  67.5349539
  78.8126052 110.0966169  72.4598254  79.6817211 110.2706822  72.0984889
  78.3332803 110.9160586  72.3373983  74.8076270  97.2925366  52.7130010
  74.7954940  98.2367206  52.8698281  75.6999692  97.1095512  52.4189471
  72.9812232 117.2163270  64.1387688  73.8839479 117.2486881  64.4554183
  72.7549602 116.2863721  64.1534024  74.7365834 115.9694257  60.7997766
  73.7861465 115.9696119  60.6862139  75.0398320 115.2226991  60.2833801
  70.6270150 100.1752939  71.0581128  71.4901612  99.8189744  71.2684452
  70.0535561  99.8366834  71.7456532  90.4718527 121.8054795  61.8643529
  91.1096937 121.6861543  61.1606869  90.3539370 122.7535639  61.9231481
  87.2808234 121.7582223  61.8005054  86.9426745 121.6423288  60.9125588
  88.1498002 121.3573388  61.7806060  83.1395049 123.6117700  57.7901944
  82.5759915 123.5207637  57.0218232  83.0247444 122.7917604  58.2704437
  87.7628017 122.9117075  67.7591259  87.7516657 122.5169873  66.8871763
  87.9248656 122.1783148  68.3525030  80.6859481 125.1068891  60.6286165
  81.4780773 124.7659716  60.2132464  80.9256131 125.2163866  61.5488318
  82.6450235 124.3677805  53.5003544  83.4181111 123.8206792  53.3616420
  82.9975634 125.2322054  53.7118005  84.4835278 125.6954187  66.7070443
  84.1925144 126.5999818  66.5917109  85.1192262 125.7370715  67.4214513
  85.4091485 123.0731035  63.2971803  86.0055057 122.8487058  62.5828766
  85.4666456 122.3315781  63.8997251  84.9816513 120.5270471  51.1321994
  85.2342034 120.0051992  50.3705457  84.0441072 120.3636616  51.2348677
  90.0259796 119.5306249  58.9396737  90.8122885 119.1125672  58.5887154
  90.2898500 120.4352341  59.1078385  95.4268223 119.4681482  59.8429715
  96.1593395 118.8980699  60.0767545  94.6707579 119.0803083  60.2836221
  84.7012802 122.4298577  53.3346369  84.5849060 121.7543480  54.0027453
  84.8115062 121.9430951  52.5178522  87.0444343 121.8908724  57.0393058
  86.6802550 121.3639345  57.7505979  87.9011459 121.5007193  56.8659543
  92.9493643 113.1803056  64.3024324  92.6176968 114.0498467  64.0785539
  92.3539257 112.8639340  64.9818354  86.6849830 116.9198624  52.0354406
  86.8524232 117.7878860  52.4024877  86.4946999 117.0825905  51.1115696
  82.8937644 121.8329399  59.7356941  81.9688141 121.7005613  59.9434633
  83.1422058 122.6123619  60.2326884  92.8422307 117.8998143  61.3817674
  91.9339184 117.8313551  61.0876435  92.7909902 118.3770088  62.2099500
  86.6639051 119.3756281  53.0201073  86.5438676 119.8213332  53.8586553
  85.9691639 119.7241599  52.4614611  80.2546455 121.4762673  60.5700730
  80.3838837 121.7297152  61.4840142  79.5743907 122.0690381  60.2505385
  86.9163172 119.3187788  69.3252571  86.1396507 119.8781708  69.3155436
  87.5553736 119.8044571  69.8467441  94.7083953 116.1014581  63.1595548
  94.0658333 116.3947114  62.5135343  94.2038882 115.9867501  63.9648745
  92.3624117 119.8477754  53.8481407  93.2741973 120.0805141  53.6729105
  91.8533764 120.4314798  53.2856486  85.1709545 122.1273242  68.8870538
  85.9124229 122.6658286  68.6105362  84.4646530 122.7539530  69.0442090
  86.9995954 119.2074989  64.8576257  87.8457150 119.6314402  65.0010906
  86.9394592 118.5508613  65.5514820  90.1495400 116.8679357  66.5157430
  89.9056332 117.6221418  65.9791706  90.4255330 117.2464705  67.3504677
  89.7060092 116.0235790  62.0971268  88.8444571 116.3217044  62.3888006
  89.7322526 116.2406189  61.1652301  86.5221661 124.5677981  58.5045074
  86.9860006 124.8465684  57.7149696  86.2578459 123.6661425  58.3218164
  83.4145742 124.1149462  61.4424837  83.9847099 124.5436731  60.8042322
  84.0053854 123.8332047  62.1409023  85.4590547 120.6901133  55.3134639
  86.1614590 121.1422177  55.7808565  85.1271175 120.0484952  55.9414532
  83.9070909 119.2812890  69.6885848  83.2769569 119.9629171  69.9221245
  83.8006996 119.1695971  68.7438987  79.2015881 118.9484686  60.6151772
  78.4114935 119.2042214  60.1391883  79.6927128 119.7633024  60.7203813
  81.1530626 119.3129265  57.5735249  80.3561790 119.4247959  58.0918745
  80.9256219 119.6515917  56.7076140  86.9836294 125.8373968  65.5217764
  87.0480726 126.2994375  66.3575936  86.2747218 125.2071333  65.6500074
  77.4853584 119.2015176  63.0466763  77.7361622 120.0862186  63.3124339
  78.0213132 119.0219778  62.2741855  83.1851651 113.5833656  72.0511099
  82.7918597 113.0299854  72.7258744  84.0017792 113.8944234  72.4417617
  80.1513709 125.0217514  55.9624669  80.6638230 125.8160764  56.1130234
  80.8036422 124.3243804  55.8958271  81.9608594 128.1383270  58.0447422
  82.1375222 129.0601235  57.8568406  82.7565427 127.8241689  58.4741802
  86.1019612 114.9991535  69.6431356  86.8429326 115.5998688  69.5635818
  86.3337535 114.2569172  69.0849398  81.2460950 120.1847902  67.9209586
  81.1314465 119.2833159  68.2216685  80.3905468 120.4311599  67.5694402
  86.8807080 125.9212572  68.3901996  87.4135417 125.1600860  68.1601304
  86.3521161 125.6286223  69.1326150  90.0476775 111.0272638  63.9195638
  89.7041045 111.9174279  63.8434748  90.4155738 110.8374295  63.0565223
  78.1162626 123.3506168  56.7384240  78.9537848 123.7603176  56.5217947
  78.2940893 122.4105610  56.7084434  90.0127058 121.0181249  52.4268073
  89.4973681 121.7885853  52.6656460  89.7404366 120.3446385  53.0501134
  87.5974169 115.8630950  57.4853311  86.7415765 115.4737800  57.3058950
  88.0101121 115.9422910  56.6253097  89.1273316 113.3977293  61.8844871
  88.6238111 113.3607428  61.0712676  89.4203922 114.3070035  61.9441527
  85.3716201 113.4816022  60.8911053  86.2369198 113.2858831  60.5316942
  85.4393710 113.2526374  61.8180409  89.8013361 118.8908341  54.2527854
  89.4963497 119.2054490  55.1037997  90.7543803 118.9689761  54.2955187
  88.2459793 125.0498564  55.9020808  87.7181154 124.3151324  55.5894045
  87.7447296 125.8273240  55.6560776  82.9778521 115.7118230  58.2627419
  83.5522272 115.4893412  57.5300612  83.5649503 115.7806925  59.0156021
  92.0358098 121.5991957  59.0691796  92.5489979 122.2321949  59.5713506
  92.6859322 120.9993153  58.7035156  83.3048108 117.7422691  52.2823305
  82.4685420 118.0797378  52.6032579  83.1652877 117.6071671  51.3450442
  85.2801188 112.5859479  56.9902489  84.6265601 112.2708496  56.3659104
  85.2381662 111.9635220  57.7162312  86.3912393 122.8678774  48.9055781
  85.4839455 122.6368028  49.1046930  86.8883425 122.0716394  49.0929762
  88.5138929 119.0741413  61.3150136  87.5961490 119.2956360  61.1571824
  88.9299072 119.1487723  60.4561844  89.2973976 120.4732829  56.4452817
  90.0445795 120.9854226  56.1359939  89.5665566 120.1516881  57.3057210
  87.5700627 122.9691369  53.4279771  86.6611846 122.6850402  53.5252241
  87.5995710 123.3890448  52.5683078  91.7452814 117.5089945  58.4271606
  91.0075570 116.9967331  58.7581849  91.9979587 117.0690326  57.6154883
  91.8464441 110.2866197  59.0213375  92.1523318 109.4263560  58.7339290
  92.5717046 110.8783817  58.8212369  78.1388797 120.6896883  57.4094973
  77.9413197 120.0966244  56.6846040  77.5835461 120.3849094  58.1270912
  86.1185521 120.5819990  59.5289566  86.1734130 119.6293826  59.4532043
  85.3076723 120.7379429  60.0130865  87.2676714 124.5100113  50.7667850
  86.8296144 123.7935972  50.3073487  88.0087155 124.7376228  50.2052941
  84.0577881 119.1997050  57.2879945  83.2445746 119.4991220  57.6945137
  84.5536875 118.8052738  58.0054427  89.6552092 119.6638874  66.1194839
  90.0101480 119.8910347  66.9789305  90.3024223 119.9957251  65.4972094
  83.5491955 116.7715405  62.9041180  84.1891335 116.6304164  62.2064143
  82.7169486 116.4849919  62.5279782  84.3252259 126.0717836  59.0176173
  85.1192858 125.5768156  58.8158748  83.6143952 125.5435699  58.6543878
  80.6335023 120.2160917  55.0935925  79.7032611 120.1545373  55.3105887
  80.7292495 119.6936870  54.2972567  80.5520572 116.7415730  57.6814167
  80.8127389 117.6561063  57.5723327  81.3737744 116.2740173  57.8310780
  82.0245497 118.1553487  64.8512991  82.6968550 117.9470849  64.2025640
  81.1975284 117.9575573  64.4118224  87.9271069 114.7815428  66.8678652
  87.2798984 115.4805378  66.7743129  88.6972084 115.2151572  67.2354901
  88.1035203 122.6196193  64.9275472  89.0327263 122.7707353  64.7544439
  87.6826233 122.7080214  64.0724119  86.9023535 126.6446858  62.6974010
  86.7634621 126.2765642  63.5699948  86.1138131 127.1594497  62.5257968
  82.4272994 121.4296090  65.6115429  82.2892792 120.6976329  66.2126968
  83.3377918 121.3404990  65.3299616  85.0555295 121.1416050  65.0999108
  85.7654913 120.5009242  65.0585727  85.0124603 121.3928944  66.0225289
  83.7684229 118.1281267  66.9194748  83.2321586 117.6772006  67.5716344
  83.1800937 118.2627176  66.1765212  83.1786488 117.5869919  49.4821211
  82.3015954 117.4658720  49.1183458  83.6544241 116.7955997  49.2300100
  74.6988628 122.3747079  59.5762719  75.3859668 122.0608809  58.9883734
  74.5436757 123.2788443  59.3029970  79.5023350 117.2637275  64.0047742
  79.4181539 116.6562945  63.2698152  78.6806057 117.7546293  64.0057239
  89.6747064 115.7490839  59.3717937  90.1715764 114.9960801  59.0519008
  88.9034046 115.7855155  58.8061147  86.2582033 117.8908222  59.0989622
  85.8879820 117.3379262  59.7870527  86.7541125 117.2866355  58.5464622
  94.1449396 120.3479845  57.4806395  94.6109848 121.1807837  57.4066698
  94.5956897 119.8824827  58.1851653  92.1166059 112.7160432  61.5197296
  91.2029139 112.9464659  61.6879503  92.5459160 112.7998876  62.3711329
  91.8872517 120.9050324  64.0197190  91.2343968 121.1526232  63.3649643
  92.2652897 120.0914462  63.6859668  87.9360090 121.6470135  70.5063227
  87.2600727 121.5464265  71.1765603  88.7587724 121.4909349  70.9699225
  79.6838949 127.8842072  63.1275743  80.2692386 127.1385760  63.2603647
  79.4863788 128.1946028  64.0112406  74.2756604 120.4547672  61.8480186
  74.3140704 119.9211263  62.6417304  73.7696897 119.9282877  61.2291163
  81.6547366 115.3012212  65.3442728  81.7188693 116.1627043  64.9320126
  81.5914487 114.6886214  64.6115087  81.1299639 117.3735345  68.9915762
  81.7571678 116.9912422  69.6053287  80.2727558 117.1549547  69.3571455
  77.9065182 119.1811774  54.9234117  78.2018623 118.2722453  54.8701171
  77.0053217 119.1599514  54.6015119  81.4359429 117.2567771  60.9061666
  80.7146014 117.8703738  60.7669139  82.2252684 117.7925536  60.8278312
  84.2385742 114.5922197  67.1802317  84.7620144 114.8384494  67.9428627
  84.0198076 115.4242232  66.7605455  79.6353023 116.8625872  55.0473442
  79.3065729 115.9823251  54.8648548  79.9892394 116.8073540  55.9349831
  82.7494846 117.1498842  55.4148920  83.0890919 117.6784763  54.6927528
  83.1966967 117.4879248  56.1907486  85.4438287 115.5335892  64.8651988
  85.1035108 114.7343705  65.2672668  84.7377294 115.8337603  64.2928821
  86.0954759 112.6185205  63.3179311  86.9180828 112.1445683  63.1958201
  86.3392823 113.3975688  63.8177997  84.7362994 115.6473463  53.6142213
  85.4571356 116.0254716  53.1105930  84.1128298 116.3662340  53.7177191
  88.8794116 116.3518612  54.5500545  89.0957731 117.2343250  54.2489373
  88.3988184 115.9604826  53.8206187  83.6193338 119.3104325  61.1271290
  83.4737919 119.6244628  62.0195571  83.1418541 119.9289226  60.5742188
  85.4789721 116.3006873  61.1752179  85.4651289 115.4047967  60.8384477
  86.1962149 116.3077537  61.8090465  87.3315851 116.7344214  63.2205307
  87.0733629 117.6561284  63.2189637  86.8000892 116.3374648  63.9105771
  78.0939000 121.8509670  64.0658951  77.5492468 122.6269478  64.1979225
  78.9718350 122.1980474  63.9078072  84.8826617 115.1821254  56.4439749
  85.0042528 114.2537900  56.6430637  84.5928659 115.1959940  55.5318065
  87.7517807 112.8676164  59.5806469  87.7739504 112.9315497  58.6258449
  88.1685866 112.0280673  59.7746975  78.8805022 120.9779566  66.9589108
  78.1386758 121.1262201  67.5453738  78.5597766 121.2387832  66.0955857
  79.3261636 128.8644995  58.9899502  80.1519655 128.5648767  58.6098146
  78.9755688 128.0952617  59.4389291  84.2943169 128.2171463  61.0597176
  83.6723178 127.5542168  60.7599404  84.9648036 128.2432595  60.3770824
  77.5270241 126.7831321  59.9488436  76.6902149 126.3553496  59.7672437
  77.4993886 126.9763765  60.8859227  84.3667696 116.6953251  70.6529682
  84.4155852 117.5715374  70.2707452  84.9090210 116.1530644  70.0801325
  83.8556676 126.7675386  54.5355636  84.0044796 127.4510851  53.8822309
  84.6623119 126.7480476  55.0505092  92.2624179 120.0717769  68.5622854
  93.1634042 119.9324234  68.2706852  92.3372154 120.2372223  69.5021032
  86.5966985 117.4484623  67.4076041  85.7270294 117.7418189  67.1358629
  86.8326465 118.0325068  68.1283304  81.6109309 122.7940564  55.5416705
  81.3655351 121.8902894  55.7396915  81.7805223 122.7957714  54.5996183
  89.3006018 113.6664240  64.9241461  89.8187962 114.4025267  64.5987950
  88.9461151 113.9728234  65.7588220  80.8804956 118.5268922  53.0402867
  80.1874201 118.6013277  52.3842903  80.6356708 117.7629265  53.5624384
  89.5518613 110.0864523  60.4442358  89.8320366 109.4187712  61.0702784
  90.3369220 110.2793618  59.9317021  93.4227471 118.5082157  64.1913933
  94.3744894 118.6080255  64.2126157  93.2530921 117.7160425  64.7012017
  91.4441850 115.5937740  64.3773334  90.8491783 115.8742753  63.6819822
  91.1591547 116.0831641  65.1490075  87.7398880 120.5984330  49.3483436
  88.6857984 120.4690538  49.4171854  87.3613125 119.8598991  49.8252865
  96.0510037 118.5199320  63.3514515  95.5349086 117.7357777  63.1644444
  96.9349986 118.1918037  63.5161035  93.7120764 112.2640336  59.3110328
  93.5145585 111.9555424  60.1953660  94.3220470 112.9901974  59.4408258
  87.6237572 124.6502076  70.8084093  88.5440582 124.8280675  71.0024140
  87.5887155 123.7058121  70.6563793  85.9241797 118.5234306  49.2838322
  85.0173252 118.2267419  49.3601035  86.2017778 118.2264124  48.4172608
  76.8419737 119.8440669  59.7337368  76.5222522 118.9905978  59.4411742
  76.2953165 120.0589247  60.4895335  80.6199645 122.5603110  63.4506874
  80.8385655 123.4920218  63.4694908  81.0325419 122.2011085  64.2361678
  87.5403863 113.0671196  55.4382563  86.7304591 112.7218281  55.8137809
  88.2288279 112.7578739  56.0270174  89.4694411 112.1449242  57.0606860
  90.0225449 112.5644696  57.7196883  89.7064497 111.2184991  57.1029816
  85.4927510 118.1336316  72.8409623  85.3924237 119.0830673  72.7721715
  85.2749052 117.8054555  71.9685694  84.6940581 115.3821241  49.4250301
  85.5559745 115.7076139  49.6846118  84.8790926 114.5952737  48.9123367
  76.7107997 123.4643581  61.7030490  76.0171469 123.0497534  61.1900444
  77.4580988 123.5064117  61.1063908  92.8473218 114.2549768  56.5685524
  92.2671887 114.9134572  56.1863576  92.5809151 113.4327112  56.1572941
  91.2976784 113.6554825  58.7706844  91.7976563 113.7671360  57.9621163
  91.9412392 113.3515878  59.4107653  85.3558780 121.5633455  71.6574685
  84.8725862 122.3633815  71.8638574  85.4419719 121.5741400  70.7042129
  78.6244740 123.3961835  59.5796504  78.6015428 123.4949522  58.6278388
  78.9345376 124.2426985  59.9013671  81.2832118 125.4537990  63.6943119
  82.2375371 125.4221932  63.6273050  81.0844641 124.9928613  64.5093345
  81.8731500 124.0239106  66.2613917  82.6924389 124.5183184  66.2848754
  82.1468307 123.1071074  66.2331484  91.6298096 116.4149858  55.6241872
  90.7423951 116.6999509  55.4062067  92.0452085 116.2543621  54.7769149
  94.9812632 116.4396379  59.3396211  95.7573022 116.9292831  59.6120828
  94.2560766 116.8654433  59.7968081  97.4185191 117.1523998  60.3970152
  98.0129681 116.9119734  59.6863460  97.4911774 116.4331129  61.0243688
  91.6039120 121.9304394  55.8392162  91.5474321 122.3872945  54.9999795
  92.1567462 121.1695079  55.6615005  95.4143926 117.7194126  56.6642282
  95.1580860 117.3190761  57.4950489  94.7896794 118.4337920  56.5392421
  77.1266414 118.3577240  66.9606114  77.7725278 117.8476194  67.4493339
  76.9183565 119.0945921  67.5349539  85.6470024 112.6217284  52.7130010
  85.6348694 113.5659124  52.8698281  86.5393446 112.4387430  52.4189471
  89.4622144 109.2160061  56.9675947  88.6954540 108.6618548  57.1132629
  89.8732849 109.2881930  57.8290098  81.4663905 115.5044857  71.0581128
  82.3295367 115.1481661  71.2684452  80.8929316 115.1658751  71.7456532
  25.4356002   6.8365412  48.5888835  26.0734412   6.7172159  47.8852176
  25.3176845   7.7846256  48.6476788  22.2445708   6.7892840  48.5250360
  21.9064220   6.6733905  47.6370895  23.1135476   6.3884005  48.5051366
  18.1032524   8.6428316  44.5147251  17.5397389   8.5518253  43.7463539
  17.9884919   7.8228221  44.9949744  22.7265491   7.9427692  54.4836566
  22.7154132   7.5480490  53.6117069  22.8886130   7.2093764  55.0770337
  15.6496956  10.1379508  47.3531472  16.4418248   9.7970333  46.9377771
  15.8893606  10.2474483  48.2733625  23.6832082  12.3099284  39.8261716
  23.0320062  12.8953364  39.4395730  24.4776445  12.8405479  39.8856753
  17.6087710   9.3988421  40.2248850  18.3818586   8.8517408  40.0861726
  17.9613108  10.2632671  40.4363312  19.4472752  10.7264803  53.4315750
  19.1562618  11.6310434  53.3162416  20.0829736  10.7681331  54.1459819
  20.3728959   8.1041652  50.0217109  20.9692531   7.8797674  49.3074072
  20.4303931   7.3626397  50.6242557  19.9453987   5.5581087  37.8567300
  20.1979508   5.0362609  37.0950763  19.0078546   5.3947233  37.9593984
  24.9897270   4.5616866  45.6642043  25.7760359   4.1436289  45.3132461
  25.2535975   5.4662958  45.8323692  25.1607348   9.9989716  40.3630700
  24.5253181  10.0724342  41.0751605  24.8304754  10.5883315  39.6849780
  30.3905697   4.4992099  46.5675022  31.1230869   3.9291316  46.8012851
  29.6345053   4.1113699  47.0081528  19.6650276   7.4609193  40.0591675
  19.5486534   6.7854097  40.7272760  19.7752536   6.9741567  39.2423828
  22.0081817   6.9219340  43.7638364  21.6440024   6.3949961  44.4751286
  22.8648933   6.5317809  43.5904850  24.4062637  10.4126219  50.4265543
  24.1063360  11.3151258  50.3181351  24.0613697  10.1458402  51.2786696
  17.8575119   6.8640016  46.4602248  16.9325615   6.7316230  46.6679940
  18.1059532   7.6434235  46.9572190  27.8059781   2.9308759  48.1062981
  26.8976658   2.8624168  47.8121742  27.7547377   3.4080704  48.9344806
  21.6276525   4.4066898  39.7446380  21.5076150   4.8523948  40.5831860
  20.9329113   4.7552215  39.1859918  19.3883417  17.1770539  43.3936511
  19.3107447  18.1278364  43.4724992  18.7845061  16.8316412  44.0511437
  21.8800647   4.3498405  56.0497878  21.1033981   4.9092325  56.0400743
  22.5191210   4.8355188  56.5712748  29.6721427   1.1325198  49.8840855
  29.0295808   1.4257731  49.2380649  29.1676356   1.0178118  50.6894051
  27.3261591   4.8788371  40.5726714  28.2379447   5.1115757  40.3974411
  26.8171238   5.4625415  40.0101792  20.1347019   7.1583858  55.6115845
  20.8761703   7.6968902  55.3350669  19.4284005   7.7850147  55.7687397
  25.6102359   9.3012999  54.2088006  26.0185715   8.8595409  53.4642639
  24.8879620   8.7265626  54.4622199  21.9633429   4.2385605  51.5821563
  22.8094624   4.6625019  51.7256212  21.9032066   3.5819230  52.2760126
  25.9331173   9.8614189  47.9640295  25.3040036  10.0259903  47.2616363
  25.5456835  10.2755799  48.7351259  29.8120405  10.7968627  45.3184659
  29.1271443  11.1767528  44.7681692  29.8964255  11.4063954  46.0516607
  25.1132874   1.8989974  53.2402737  24.8693806   2.6532034  52.7037013
  25.3892805   2.2775321  54.0749984  27.0671337   8.4428586  51.9180003
  27.2788232   9.0860346  51.2414384  27.0201085   7.6090903  51.4501933
  21.4859135   9.5988597  45.2290380  21.9497481   9.8776300  44.4395003
  21.2215933   8.6972042  45.0463471  18.3783216   9.1460079  48.1670144
  18.9484573   9.5747347  47.5287628  18.9691328   8.8642664  48.8654329
  20.4228021   5.7211750  42.0379946  21.1252065   6.1732793  42.5053872
  20.0908650   5.0795569  42.6659839  28.1817165  11.3200541  50.0902360
  29.0034609  10.9180729  49.8085042  28.1779568  11.2168776  51.0418476
  21.9473768  10.8684585  52.2463070  22.0118201  11.3304992  53.0821242
  21.2384692  10.2381950  52.3745380  36.2723158   7.6639290  46.4387331
  35.5186866   7.0946688  46.2831336  36.4070699   7.6301954  47.3857966
  21.6621786  12.5352692  42.1142051  21.5267461  13.3804228  42.5426899
  22.2031598  12.7371970  41.3507985  15.1151183  10.0528130  42.6869976
  15.6275704  10.8471381  42.8375541  15.7673896   9.3554421  42.6203577
  16.9246068  13.1693887  44.7692729  17.1012696  14.0911851  44.5813713
  17.7202902  12.8552306  45.1987109  23.2890262  13.1576259  56.2442393
  22.8454116  12.3712637  55.9263297  23.9507476  13.3455409  55.5786284
  18.0477383  14.6872060  50.7703071  18.5984809  14.5589124  49.9980065
  17.2088859  14.9866949  50.4197964  25.3871500  13.4379059  54.2723794
  25.3689976  14.2587940  53.7804063  26.3091420  13.3133134  54.4973935
  21.8444555  10.9523188  55.1147302  22.3772891  10.1911476  54.8846610
  21.3158636  10.6596840  55.8571457  24.9764532   6.0491865  39.1513379
  24.4611156   6.8196470  39.3901767  24.7041841   5.3757001  39.7746441
  29.9498806   8.8024220  41.0866553  29.1728249   8.4635379  40.6421715
  30.6290287   8.8076843  40.4121518  24.7650835   3.9218957  40.9773161
  24.4600971   4.2365107  41.8283304  25.7181278   4.0000377  41.0200493
  23.2097267  10.0809181  42.6266114  22.6818629   9.3461940  42.3139352
  22.7084770  10.8583857  42.3806083  28.1890113   8.2758201  47.7433161
  27.5313788   8.9657463  47.8313289  28.9930512   8.6654633  48.0867147
  26.9995572   6.6302574  45.7937103  27.5127454   7.2632566  46.2958812
  27.6496796   6.0303769  45.4280463  21.3549867   7.8989391  35.6301088
  20.4476929   7.6678644  35.8292236  21.8520899   7.1027010  35.8175069
  24.2617946  16.6086898  38.5497774  23.5879645  16.9118595  39.1582732
  24.6483768  17.4115978  38.2003231  23.4776403   4.1052029  48.0395443
  22.5598964   4.3266976  47.8817131  23.8936547   4.1798340  47.1807150
  24.2611451   5.5043445  43.1698123  25.0083270   6.0164842  42.8605245
  24.5303040   5.1827498  44.0302517  22.5338101   8.0001986  40.1525078
  21.6249320   7.7161019  40.2497547  22.5633185   8.4201064  39.2928384
  27.7657368  11.6108575  43.9216245  27.3119695  10.7699485  43.9781436
  27.1351335  12.2469974  44.2591025  26.7090288   2.5400561  45.1516913
  25.9713045   2.0277948  45.4827155  26.9617061   2.1000943  44.3400189
  26.2090308  13.4485072  44.8566063  26.5013282  14.0090129  44.1378429
  26.7188928  13.7413633  45.6119222  21.0822995   5.6130606  46.2534873
  21.1371605   4.6604443  46.1777350  20.2714197   5.7690046  46.7376171
  22.2314189   9.5410729  37.4913156  21.7933619   8.8246588  37.0318794
  22.9724630   9.7686844  36.9298248  21.1723933  14.2265423  45.9459517
  21.1300111  14.4526269  45.0168049  22.0886632  13.9928798  46.0945318
  24.6189567   4.6949491  52.8440146  24.9738954   4.9220964  53.7034611
  25.2661698   5.0267867  52.2217401  30.3487303   7.8167927  43.5489475
  30.2105202   8.0069522  42.6210664  29.9923522   8.5787309  44.0057526
  30.3756683   9.8844454  48.5600746  30.8093190   9.7919743  49.4083800
  31.0888264   9.8601954  47.9220762  19.2889733  11.1028452  45.7421479
  20.0830332  10.6078772  45.5404054  18.5781426  10.5746315  45.3789185
  24.1084578  13.4846548  50.0933847  24.1621600  14.0537484  50.8611563
  23.2399359  13.6548433  49.7287884  31.2372233   9.9268154  51.0933632
  31.4308123  10.8313965  51.3392907  31.1372851   9.4675573  51.9272217
  26.2987341  10.0774897  56.6674512  26.1472848   9.8485449  55.7504596
  26.2892021  11.0345498  56.6805857  23.0672678   7.6506810  51.6520779
  23.9964738   7.8017969  51.4789746  22.6463708   7.7390830  50.7969425
  21.8661009  11.6757474  49.4219316  21.7272095  11.3076258  50.2945254
  21.0775606  12.1905114  49.2503274  22.4609161  16.7766571  40.7644853
  22.6360917  16.3054614  41.5790476  21.7741949  17.4032337  40.9926114
  23.4166225  11.0539077  46.8108154  23.0816057  11.0139847  47.7065804
  22.9170170  10.3883793  46.3378564  26.3525416   8.3995111  37.0845214
  25.7354587   7.6741939  36.9878266  25.8841905   9.1604471  36.7412288
  20.0192769   6.1726666  51.8244415  20.7292388   5.5319858  51.7831033
  19.9762077   6.4239561  52.7470596  28.0079548  13.1094019  54.7450994
  27.9492094  12.4253240  54.0781577  28.4099066  13.8513009  54.2931620
  17.0270247  19.9255933  47.5384713  17.2666845  20.5574457  48.2163732
  16.1839443  19.5743973  47.8250072  28.0096955  11.0733603  52.9764974
  27.1223734  10.7359525  53.0991373  28.5795506  10.3416635  53.2133739
  21.5398109  15.7335056  49.9426217  21.4668280  16.5390027  50.4545522
  21.0975502  15.9327022  49.1174238  21.3287888  14.9706826  43.4529039
  20.5455410  15.5128506  43.5467263  22.0280633  15.4880805  43.8523280
  32.4914296   6.4841821  47.7381535  32.4804172   7.3666536  47.3675469
  31.6231675   6.1313372  47.5436073  23.9996792  15.6321890  52.0984376
  24.7124764  16.2669355  52.0260277  23.5086821  15.7285756  51.2824378
  25.7214319   9.5373142  43.6701667  24.7870598   9.6574605  43.5006372
  25.8990987   8.6345609  43.4061677  29.1086870   5.3790462  44.2051701
  29.5747323   6.2118453  44.1312004  29.5594371   4.9135443  44.9096960
  19.0508706  13.3816333  52.9189947  19.7518165  14.0152816  53.0719341
  18.5803821  13.7231065  52.1585586  27.1763101  11.7234283  41.2037854
  27.4522945  11.6090878  42.1131728  26.3067600  11.3251768  41.1650027
  26.8509992   5.9360941  50.7442497  26.1981442   6.1836848  50.0894950
  27.2290372   5.1225079  50.4104974  23.8117165  15.9720634  44.8470667
  23.9939560  15.1542290  45.3098419  24.6350152  16.1888326  44.4095557
  24.1459331  14.8988819  42.1085716  24.6747097  14.3881274  41.4955878
  24.4087551  14.5831349  42.9731249  22.8997565   6.6780752  57.2308534
  22.2238202   6.5774881  57.9010909  23.7225199   6.5219966  57.6944531
  14.6476424  12.9152688  49.8521049  15.2329861  12.1696376  49.9848953
  14.4501262  13.2256645  50.7357713  17.5015079  15.9503936  44.8683492
  16.8325454  16.4350063  44.3847532  17.3627949  16.1973156  45.7826870
  21.6420348  17.9847679  51.4666150  22.1938656  18.1479301  52.2315235
  21.9826541  18.5752117  50.7946175  26.4931222  12.8108937  57.3214804
  27.0371126  13.4238895  56.8269759  25.9118067  13.3688515  57.8381817
  24.7788735  15.9329655  48.4529832  24.6539874  15.1319395  47.9440778
  25.4367826  16.4275848  47.9643802  26.8423643  13.7338675  50.0809382
  25.8953979  13.6144026  50.0087709  27.1906416  12.8461173  50.1635644
  23.8470076  13.5291391  46.2813734  23.6995039  12.6008098  46.4621304
  24.6723570  13.5511482  45.7970810  27.4504198  14.3519950  47.3678607
  28.3750746  14.1462811  47.2303058  27.2819502  14.1036351  48.2767949
  27.2399515  14.8705617  42.7240699  27.4136392  14.3052040  41.9714551
  27.7328406  15.6706512  42.5420189  33.0938906   7.6342040  44.3430998
  33.5370052   6.8849365  43.9450122  32.2165416   7.6252177  43.9604730
  28.2274687  14.1872382  39.8237597  28.9225592  14.8079074  40.0424912
  28.5697837  13.3367733  40.0989975  30.1266110  11.6372087  41.3524928
  30.6517434  11.9759360  40.6274248  30.0388463  10.7019102  41.1688062
  21.7886159  15.5506161  53.4814804  22.0973285  15.3055308  54.3537504
  22.5861641  15.7552799  52.9933675  21.8106771  17.7044070  45.7120181
  21.3711761  17.2120449  46.4053038  22.5614888  17.1617038  45.4712256
  14.2899110  13.8955611  45.7144809  15.1157130  13.5959383  45.3343452
  13.9393162  13.1263234  46.1634598  19.2580643  13.2482080  47.7842483
  18.6360652  12.5852785  47.4844710  19.9285510  13.2743211  47.1016130
  12.4907715  11.8141938  46.6733743  11.6539623  11.3864112  46.4917744
  12.4631360  12.0074381  47.6104534  29.8160016  12.2704991  56.6576126
  29.0255560  12.2529130  56.1180625  29.5793371  12.8093284  57.4125162
  29.9357891   9.1197457  53.9708854  29.9855896   8.9547465  54.9124377
  29.8271815   8.2524716  53.5806735  18.8194150  11.7986003  41.2600943
  18.9682270  12.4821467  40.6067616  19.6260593  11.7791093  41.7750399
  27.2261654   5.1028385  55.2868161  28.1271516   4.9634850  54.9952159
  27.3009628   5.2682840  56.2266338  31.4376088  11.5394399  54.2150876
  31.1460896  11.9024379  55.0514337  30.8248219  10.8261407  54.0364208
  32.6371770   9.1047278  46.7353446  33.4718662   9.5437083  46.8991006
  32.7730899   8.6285932  45.9161692  29.6863276   6.6627013  52.6830934
  30.1617398   6.8554660  51.8749785  28.7628842   6.7186199  52.4374317
  16.5746783   7.8251180  42.2662012  16.3292825   6.9213510  42.4642222
  16.7442697   7.8268331  41.3241490  22.3189555  14.2934133  38.7312690
  21.7463523  14.9124320  38.2783162  22.8922349  14.8433495  39.2652612
  28.3864945   3.5392773  50.9159239  29.3382368   3.6390871  50.9371463
  28.2168396   2.7471042  51.4257324  26.4079325   0.6248357  51.1018640
  25.8129257   0.9053369  50.4065129  26.1229021   1.1142258  51.8735381
  25.5386815  14.5771283  39.8621273  26.4717488  14.5116845  40.0654148
  25.4510028  15.4127550  39.4035805  28.1674832  13.8937154  36.8225220
  28.0888463  13.5597017  37.7160978  28.9884499  14.3858922  36.8216693
  30.8653023   6.7598893  50.0301539  30.8329343   5.8214894  50.2161223
  31.4753647   6.8382930  49.2967364  22.7036354   5.6294946  36.0728743
  23.6495459   5.5001154  36.1417161  22.3250599   4.8909608  36.5498171
  31.0147512   3.5509937  50.0759822  30.4986560   2.7668393  49.8889751
  31.8987460   3.2228653  50.2406342  36.6829573   7.8214900  49.1707576
  37.4132961   7.5600188  49.7315279  36.0736518   7.0843622  49.2109644
  34.7644870   5.9622763  49.7682027  34.0378034   5.8278727  49.1598519
  34.3492157   6.2699591  50.5738745  22.5875047   9.6812692  57.5329400
  23.5078056   9.8591291  57.7269446  22.5524630   8.7368738  57.3809099
  15.5837119   7.5913727  50.1752181  15.8023129   8.5230835  50.1940215
  15.9962893   7.2321701  50.9606985  20.3196254   6.5944071  58.3819992
  19.8363336   7.3944432  58.5883881  20.4057193   6.6052016  57.4287436
  16.2469592  10.4848606  50.4188425  17.2012845  10.4532548  50.3518357
  16.0482115  10.0239230  51.2338651  16.8368974   9.0549722  52.9859223
  17.6561863   9.5493801  53.0094060  17.1105782   8.1381690  52.9576791
  26.5935570   1.4460475  42.3487179  25.7061425   1.7310125  42.1307373
  27.0089559   1.2854238  41.5014456  29.9450106   1.4706995  46.0641518
  30.7210496   1.9603448  46.3366135  29.2198241   1.8965050  46.5213387
  32.3822665   2.1834615  47.1215459  32.9767156   1.9430351  46.4108767
  32.4549249   1.4641745  47.7488995  14.6019821  16.0268226  47.4358623
  14.4674289  15.2668627  46.8696621  14.1851883  16.7509126  46.9687412
  25.7378784  11.2105149  36.4435199  26.4414634  11.4155152  37.0592854
  25.0141432  11.7781911  36.7084282  26.5676594   6.9615010  42.5637469
  26.5111795   7.4183562  41.7245101  27.1204936   6.2005695  42.3860312
  30.3781400   2.7504742  43.3887588  30.1218334   2.3501378  44.2195796
  29.7534268   3.4648536  43.2637727  34.6893738   5.4900816  45.8958880
  34.1293296   5.5594005  46.6690442  34.0837241   5.3141800  45.1758376
  17.7588947  16.9237543  47.6477066  17.6421331  17.8682975  47.5455756
  16.9381393  16.6211104  48.0362865  27.6465481  11.6487678  38.4933659
  28.4811085  11.2168877  38.3111133  27.4849824  11.4769692  39.4210553
  27.3011373   8.1519792  39.8589998  27.2460177   7.9864063  38.9178442
  26.6757429   8.8595825  40.0152188  24.6157280  10.4568704  59.1843561
  25.4848440  10.6309356  58.8230196  24.1364032  11.2763120  59.0619290
  18.7843461  17.5765805  50.8632994  19.6870707  17.6089415  51.1799489
  18.5580831  16.6466256  50.8779330  20.5397063  16.3296791  47.5243073
  19.5892694  16.3298653  47.4107445  20.8429549  15.5829526  47.0079108
  36.2749756  22.1657330  48.5888835  36.9128166  22.0464077  47.8852176
  36.1570599  23.1138173  48.6476788  33.0839462  22.1184758  48.5250360
  32.7457974  22.0025822  47.6370895  33.9529231  21.7175923  48.5051366
  28.9426278  23.9720234  44.5147251  28.3791143  23.8810171  43.7463539
  28.8278673  23.1520138  44.9949744  33.5659245  23.2719609  54.4836566
  33.5547886  22.8772408  53.6117069  33.7279885  22.5385682  55.0770337
  26.4890710  25.4671426  47.3531472  27.2812002  25.1262250  46.9377771
  26.7287360  25.5766401  48.2733625  34.5225837  27.6391202  39.8261716
  33.8713817  28.2245282  39.4395730  35.3170200  28.1697397  39.8856753
  28.4481464  24.7280339  40.2248850  29.2212340  24.1809326  40.0861726
  28.8006863  25.5924588  40.4363312  30.2866507  26.0556721  53.4315750
  29.9956373  26.9602352  53.3162416  30.9223491  26.0973249  54.1459819
  31.2122713  23.4333570  50.0217109  31.8086286  23.2089592  49.3074072
  31.2697685  22.6918315  50.6242557  30.7847742  20.8873005  37.8567300
  31.0373263  20.3654526  37.0950763  29.8472301  20.7239150  37.9593984
  35.8291025  19.8908783  45.6642043  36.6154114  19.4728207  45.3132461
  36.0929729  20.7954876  45.8323692  36.0001102  25.3281634  40.3630700
  35.3646935  25.4016260  41.0751605  35.6698508  25.9175232  39.6849780
  41.2299452  19.8284017  46.5675022  41.9624624  19.2583233  46.8012851
  40.4738808  19.4405617  47.0081528  30.5044031  22.7901111  40.0591675
  30.3880289  22.1146014  40.7272760  30.6146291  22.3033485  39.2423828
  32.8475572  22.2511258  43.7638364  32.4833779  21.7241879  44.4751286
  33.7042687  21.8609727  43.5904850  38.7524872  13.5405591  51.0269631
  38.4208197  14.4101002  50.8030846  38.1570486  13.2241875  51.7063661
  32.4881059  17.2801158  38.7599713  32.6555461  18.1481394  39.1270184
  32.2978228  17.4428439  37.8361002  35.2456392  25.7418137  50.4265543
  34.9457115  26.6443175  50.3181351  34.9007451  25.4750320  51.2786696
  28.6968873  22.1931933  46.4602248  27.7719370  22.0608148  46.6679940
  28.9453286  22.9726153  46.9572190  38.6453536  18.2600677  48.1062981
  37.7370413  18.1916085  47.8121742  38.5941131  18.7372622  48.9344806
  32.4670279  19.7358815  39.7446380  32.3469905  20.1815866  40.5831860
  31.7722868  20.0844133  39.1859918  26.0577684  21.8365207  47.2946037
  26.1870065  22.0899686  48.2085449  25.3775136  22.4292915  46.9750692
  30.2277172  32.5062457  43.3936511  30.1501201  33.4570282  43.4724992
  29.6238815  32.1608329  44.0511437  32.7194401  19.6790322  56.0497878
  31.9427735  20.2384243  56.0400743  33.3584964  20.1647105  56.5712748
  40.5115182  16.4617115  49.8840855  39.8689562  16.7549648  49.2380649
  40.0070110  16.3470036  50.6894051  38.1655346  20.2080288  40.5726714
  39.0773202  20.4407675  40.3974411  37.6564993  20.7917333  40.0101792
  30.9740774  22.4875776  55.6115845  31.7155458  23.0260820  55.3350669
  30.2677759  23.1142065  55.7687397  36.4496113  24.6304916  54.2088006
  36.8579469  24.1887327  53.4642639  35.7273375  24.0557544  54.4622199
  32.8027183  19.5677523  51.5821563  33.6488378  19.9916937  51.7256212
  32.7425821  18.9111147  52.2760126  36.7724928  25.1906107  47.9640295
  36.1433790  25.3551821  47.2616363  36.3850590  25.6047716  48.7351259
  40.6514160  26.1260545  45.3184659  39.9665198  26.5059446  44.7681692
  40.7358009  26.7355871  46.0516607  35.9526629  17.2281891  53.2402737
  35.7087560  17.9823952  52.7037013  36.2286559  17.6067239  54.0749984
  37.9065091  23.7720504  51.9180003  38.1181987  24.4152264  51.2414384
  37.8594840  22.9382820  51.4501933  35.5091320  16.3838324  48.8216575
  34.6475799  16.6819578  49.1133312  35.5353755  16.6008723  47.8897607
  32.3252890  24.9280515  45.2290380  32.7891235  25.2068218  44.4395003
  32.0609688  24.0263960  45.0463471  29.2176971  24.4751997  48.1670144
  29.7878328  24.9039265  47.5287628  29.8085083  24.1934581  48.8654329
  31.2621776  21.0503667  42.0379946  31.9645819  21.5024711  42.5053872
  30.9302404  20.4087486  42.6659839  29.7102137  19.6415424  56.4131155
  29.0800798  20.3231705  56.6466552  29.6038225  19.5298506  55.4684293
  25.0047110  19.3087220  47.3397079  24.2146164  19.5644749  46.8637190
  25.4958357  20.1235558  47.4449120  39.0210919  26.6492459  50.0902360
  39.8428363  26.2472646  49.8085042  39.0173322  26.5460693  51.0418476
  26.9561855  19.6731799  44.2980556  26.1593018  19.7850493  44.8164051
  26.7287447  20.0118451  43.4321446  32.7867523  26.1976502  52.2463070
  32.8511955  26.6596910  53.0821242  32.0778447  25.5673867  52.3745380
  23.2884813  19.5617710  49.7712070  23.5392851  20.4464720  50.0369646
  23.8244361  19.3822312  48.9987162  47.1116912  22.9931208  46.4387331
  46.3580621  22.4238606  46.2831336  47.2464454  22.9593872  47.3857966
  32.5015540  27.8644610  42.1142051  32.3661215  28.7096146  42.5426899
  33.0425353  28.0663888  41.3507985  28.9882880  13.9436190  58.7756406
  28.5949826  13.3902388  59.4504050  29.8049020  14.2546768  59.1662924
  25.9544938  25.3820048  42.6869976  26.4669458  26.1763298  42.8375541
  26.6067651  24.6846338  42.6203577  27.7639823  28.4985804  44.7692729
  27.9406451  29.4203769  44.5813713  28.5596656  28.1844223  45.1987109
  31.9050841  15.3594069  56.3676663  32.6460554  15.9601222  56.2881125
  32.1368764  14.6171707  55.8094705  27.0492179  20.5450436  54.6454892
  26.9345694  19.6435693  54.9461991  26.1936697  20.7914133  54.2939709
  34.1284017  28.4868176  56.2442393  33.6847871  27.7004555  55.9263297
  34.7901230  28.6747327  55.5786284  28.8871138  30.0163978  50.7703071
  29.4378563  29.8881041  49.9980065  28.0482614  30.3158867  50.4197964
  36.2265255  28.7670976  54.2723794  36.2083730  29.5879857  53.7804063
  37.1485175  28.6425052  54.4973935  32.6838309  26.2815106  55.1147302
  33.2166646  25.5203394  54.8846610  32.1552390  25.9888758  55.8571457
  35.8508004  11.3875172  50.6440944  35.5072273  12.2776814  50.5680055
  36.2186967  11.1976829  49.7810529  23.9193855  23.7108702  43.4629546
  24.7569077  24.1205711  43.2463254  24.0972122  22.7708144  43.4329740
  35.8158287  21.3783783  39.1513379  35.3004910  22.1488388  39.3901767
  35.5435595  20.7048919  39.7746441  33.4005398  16.2233484  44.2098618
  32.5446994  15.8340334  44.0304256  33.8132350  16.3025445  43.3498403
  34.9304544  13.7579827  48.6090177  34.4269340  13.7209962  47.7957983
  35.2235151  14.6672570  48.6686834  31.1747430  13.8418557  47.6156359
  32.0400427  13.6461365  47.2562249  31.2424939  13.6128908  48.5425716
  40.7892561  24.1316138  41.0866553  40.0122004  23.7927297  40.6421715
  41.4684042  24.1368761  40.4121518  35.6044590  19.2510875  40.9773161
  35.2994725  19.5657024  41.8283304  36.5575032  19.3292295  41.0200493
  34.0491022  25.4101098  42.6266114  33.5212383  24.6753858  42.3139352
  33.5478524  26.1875775  42.3806083  39.0283868  23.6050119  47.7433161
  38.3707542  24.2949380  47.8313289  39.8324267  23.9946551  48.0867147
  28.7809749  16.0720765  44.9872726  29.3553501  15.8495946  44.2545919
  29.3680732  16.1409459  45.7401327  37.8389327  21.9594492  45.7937103
  38.3521208  22.5924483  46.2958812  38.4890550  21.3595687  45.4280463
  29.1079336  18.1025226  39.0068611  28.2716649  18.4399912  39.3277886
  28.9684106  17.9674205  38.0695748  31.0832417  12.9462014  43.7147795
  30.4296829  12.6311031  43.0904410  31.0412891  12.3237754  44.4407618
  32.1943622  23.2281309  35.6301088  31.2870684  22.9970562  35.8292236
  32.6914654  22.4318928  35.8175069  35.1011701  31.9378816  38.5497774
  34.4273400  32.2410513  39.1582732  35.4877523  32.7407896  38.2003231
  34.3170157  19.4343947  48.0395443  33.3992719  19.6558894  47.8817131
  34.7330301  19.5090258  47.1807150  35.1005205  20.8335363  43.1698123
  35.8477024  21.3456760  42.8605245  35.3696795  20.5119415  44.0302517
  33.3731855  23.3293903  40.1525078  32.4643075  23.0452936  40.2497547
  33.4026939  23.7492982  39.2928384  38.6051123  26.9400493  43.9216245
  38.1513450  26.0991403  43.9781436  37.9745089  27.5761891  44.2591025
  37.5484042  17.8692479  45.1516913  36.8106799  17.3569865  45.4827155
  37.8010816  17.4292861  44.3400189  37.0484062  28.7776990  44.8566063
  37.3407036  29.3382047  44.1378429  37.5582683  29.0705551  45.6119222
  37.6495670  10.6468731  45.7458682  37.9554546   9.7866094  45.4584597
  38.3748274  11.2386351  45.5457676  23.9420026  21.0499418  44.1340280
  23.7444426  20.4568778  43.4091346  23.3866690  20.7451628  44.8516219
  31.9216749  20.9422524  46.2534873  31.9765359  19.9896360  46.1777350
  31.1107951  21.0981963  46.7376171  33.0707943  24.8702647  37.4913156
  32.6327373  24.1538506  37.0318794  33.8118384  25.0978762  36.9298248
  29.8609109  19.5599584  44.0125252  29.0476975  19.8593754  44.4190444
  30.3568103  19.1655273  44.7299734  32.0117687  29.5557341  45.9459517
  31.9693866  29.7818187  45.0168049  32.9280386  29.3220715  46.0945318
  35.4583321  20.0241408  52.8440146  35.8132709  20.2512881  53.7034611
  36.1055452  20.3559785  52.2217401  41.1881058  23.1459844  43.5489475
  41.0498957  23.3361440  42.6210664  40.8317277  23.9079227  44.0057526
  29.3523184  17.1317939  49.6286487  29.9922563  16.9906698  48.9309450
  28.5200715  16.8452453  49.2525089  41.2150438  25.2136371  48.5600746
  41.6486944  25.1211660  49.4083800  41.9282018  25.1893872  47.9220762
  30.1283488  26.4320370  45.7421479  30.9224086  25.9370690  45.5404054
  29.4175180  25.9038233  45.3789185  34.9478332  28.8138465  50.0933847
  35.0015355  29.3829402  50.8611563  34.0793114  28.9840350  49.7287884
  26.4366251  20.5763452  41.8181232  25.5063840  20.5147907  42.0351194
  26.5323723  20.0539404  41.0217873  26.3551800  17.1018264  44.4059474
  26.6158618  18.0163598  44.2968634  27.1768973  16.6342707  44.5556086
  27.8276726  18.5156022  51.5758298  28.4999779  18.3073384  50.9270947
  27.0006512  18.3178108  51.1363530  42.0765987  25.2560072  51.0933632
  42.2701877  26.1605882  51.3392907  41.9766605  24.7967491  51.9272217
  33.7302298  15.1417962  53.5923959  33.0830213  15.8407912  53.4988435
  34.5003313  15.5754106  53.9600207  37.1381096  25.4066815  56.6674512
  36.9866602  25.1777366  55.7504596  37.1285775  26.3637416  56.6805857
  33.9066432  22.9798727  51.6520779  34.8358492  23.1309887  51.4789746
  33.4857462  23.0682748  50.7969425  32.7054764  27.0049392  49.4219316
  32.5665850  26.6368176  50.2945254  31.9169360  27.5197031  49.2503274
  33.3002916  32.1058488  40.7644853  33.4754672  31.6346531  41.5790476
  32.6135704  32.7324254  40.9926114  34.2559979  26.3830994  46.8108154
  33.9209812  26.3431764  47.7065804  33.7563925  25.7175710  46.3378564
  28.2304223  21.7898624  52.3360735  28.0924021  21.0578863  52.9372274
  29.1409147  21.7007525  52.0544923  37.1919171  23.7287029  37.0845214
  36.5748341  23.0033857  36.9878266  36.7235659  24.4896389  36.7412288
  30.8586524  21.5018584  51.8244415  31.5686142  20.8611776  51.7831033
  30.8155832  21.7531479  52.7470596  38.8473302  28.4385937  54.7450994
  38.7885849  27.7545157  54.0781577  39.2492821  29.1804927  54.2931620
  29.5715458  18.4883802  53.6440054  29.0352815  18.0374540  54.2961651
  28.9832166  18.6229711  52.9010519  27.8664001  35.2547851  47.5384713
  28.1060599  35.8866375  48.2163732  27.0233198  34.9035891  47.8250072
  28.9817717  17.9472453  36.2066518  28.1047183  17.8261254  35.8428765
  29.4575470  17.1558531  35.9545407  38.8490710  26.4025521  52.9764974
  37.9617488  26.0651443  53.0991373  39.4189261  25.6708552  53.2133739
  20.5019857  22.7349613  46.3008025  21.1890897  22.4211343  45.7129041
  20.3467985  23.6390977  46.0275277  25.3054579  17.6239809  50.7293049
  25.2212768  17.0165479  49.9943459  24.4837285  18.1148828  50.7302545
  32.3791863  31.0626973  49.9426217  32.3062035  31.8681945  50.4545522
  31.9369256  31.2618939  49.1174238  32.1681643  30.2998743  43.4529039
  31.3849165  30.8420424  43.5467263  32.8674388  30.8172723  43.8523280
  35.4778293  16.1093373  46.0963244  35.9746992  15.3563335  45.7764314
  34.7065274  16.1457690  45.5306453  43.3308050  21.8133738  47.7381535
  43.3197926  22.6958454  47.3675469  42.4625430  21.4605289  47.5436073
  34.8390547  30.9613807  52.0984376  35.5518519  31.5961272  52.0260277
  34.3480575  31.0577673  51.2824378  36.5608074  24.8665060  43.6701667
  35.6264352  24.9866523  43.5006372  36.7384742  23.9637527  43.4061677
  32.0613262  18.2510756  45.8234929  31.6911049  17.6981796  46.5115834
  32.5572354  17.6468889  45.2709929  39.9480625  20.7082379  44.2051701
  40.4141077  21.5410371  44.1312004  40.3988125  20.2427361  44.9096960
  29.8902460  28.7108251  52.9189947  30.5911920  29.3444734  53.0719341
  29.4197575  29.0522982  52.1585586  38.0156856  27.0526201  41.2037854
  38.2916700  26.9382795  42.1131728  37.1461355  26.6543686  41.1650027
  37.9197288  13.0762966  48.2442603  37.0060367  13.3067193  48.4124810
  38.3490389  13.1601410  49.0956635  37.6903746  21.2652858  50.7442497
  37.0375196  21.5128766  50.0894950  38.0684126  20.4516997  50.4104974
  34.6510920  31.3012552  44.8470667  34.8333315  30.4834207  45.3098419
  35.4743906  31.5180244  44.4095557  34.9853085  30.2280737  42.1085716
  35.5140852  29.7173191  41.4955878  35.2481305  29.9123267  42.9731249
  33.7391319  22.0072669  57.2308534  33.0631956  21.9066799  57.9010909
  34.5618953  21.8511883  57.6944531  25.4870178  28.2444606  49.8521049
  26.0723615  27.4988294  49.9848953  25.2895017  28.5548563  50.7357713
  28.3408833  31.2795853  44.8683492  27.6719209  31.7641981  44.3847532
  28.2021703  31.5265074  45.7826870  20.0787833  20.8150206  48.5725492
  20.1171932  20.2813797  49.3662610  19.5728126  20.2885412  47.9536470
  32.4814102  33.3139597  51.4666150  33.0332410  33.4771218  52.2315235
  32.8220295  33.9044035  50.7946175  27.4578595  15.6614747  52.0688035
  27.5219922  16.5229578  51.6565432  27.3945715  15.0488748  51.3360393
  26.9330868  17.7337879  55.7161069  27.5602907  17.3514957  56.3298593
  26.0758787  17.5152081  56.0816761  37.3324976  28.1400854  57.3214804
  37.8764880  28.7530813  56.8269759  36.7511821  28.6980433  57.8381817
  23.7096411  19.5414308  41.6479424  24.0049852  18.6324987  41.5946477
  22.8084446  19.5202048  41.3260426  35.6182489  31.2621572  48.4529832
  35.4933629  30.4611312  47.9440778  36.2761580  31.7567766  47.9643802
  27.2390658  17.6170305  47.6306972  26.5177243  18.2306273  47.4914446
  28.0283913  18.1528070  47.5523618  37.6817398  29.0630593  50.0809382
  36.7347733  28.9435944  50.0087709  38.0300171  28.1753091  50.1635644
  30.0416971  14.9524731  53.9047624  30.5651373  15.1987028  54.6673933
  29.8229304  15.7844766  53.4850761  25.4384252  17.2228406  41.7718749
  25.1096958  16.3425785  41.5893855  25.7923623  17.1676075  42.6595138
  34.6863831  28.8583309  46.2813734  34.5388793  27.9300016  46.4621304
  35.5117324  28.8803399  45.7970810  28.5526075  17.5101376  42.1394227
  28.8922148  18.0387297  41.4172835  28.9998196  17.8481782  42.9152793
  38.2897953  29.6811867  47.3678607  39.2144500  29.4754729  47.2303058
  38.1213256  29.4328269  48.2767949  31.2469516  15.8938427  51.5897295
  30.9066336  15.0946240  51.9917974  30.5408522  16.1940137  51.0174128
  31.8985988  12.9787739  50.0424618  32.7212057  12.5048217  49.9203508
  32.1424051  13.7578223  50.5423304  30.5394222  16.0075997  40.3387519
  31.2602585  16.3857250  39.8351236  29.9159527  16.7264874  40.4422497
  34.6825345  16.7121146  41.2745852  34.8988960  17.5945784  40.9734680
  34.2019412  16.3207360  40.5451494  29.4224567  19.6706860  47.8516596
  29.2769147  19.9847163  48.7440878  28.9449770  20.2891760  47.2987495
  31.2820950  16.6609408  47.8997486  31.2682518  15.7650501  47.5629784
  31.9993378  16.6680071  48.5335772  33.1347080  17.0946748  49.9450613
  32.8764858  18.0163818  49.9434944  32.6032121  16.6977182  50.6351077
  38.0793269  30.1997535  42.7240699  38.2530147  29.6343957  41.9714551
  38.5722160  30.9998430  42.5420189  23.8970229  22.2112204  50.7904257
  23.3523697  22.9872012  50.9224532  24.7749579  22.5583008  50.6323379
  30.6857845  15.5423788  43.1685056  30.8073757  14.6140434  43.3675943
  30.3959888  15.5562474  42.2563371  33.5549036  13.2278698  46.3051776
  33.5770733  13.2918031  45.3503755  33.9717095  12.3883207  46.4992282
  43.9332660  22.9633958  44.3430998  44.3763806  22.2141283  43.9450122
  43.0559170  22.9544094  43.9604730  39.0668442  29.5164299  39.8237597
  39.7619346  30.1370992  40.0424912  39.4091592  28.6659651  40.0989975
  24.6836251  21.3382100  53.6834414  23.9417987  21.4864736  54.2699045
  24.3628995  21.5990366  52.8201164  40.9659865  26.9664005  41.3524928
  41.4911189  27.3051278  40.6274248  40.8782217  26.0311020  41.1688062
  32.6279913  30.8798078  53.4814804  32.9367040  30.6347225  54.3537504
  33.4255395  31.0844717  52.9933675  32.6500525  33.0335988  45.7120181
  32.2105516  32.5412367  46.4053038  33.4008642  32.4908956  45.4712256
  25.1292864  29.2247529  45.7144809  25.9550884  28.9251301  45.3343452
  24.7786916  28.4555151  46.1634598  30.0974398  28.5773997  47.7842483
  29.4754407  27.9144702  47.4844710  30.7679264  28.6035129  47.1016130
  23.3301469  27.1433855  46.6733743  22.4933378  26.7156030  46.4917744
  23.3025115  27.3366299  47.6104534  30.1698925  17.0555785  57.3774989
  30.2187080  17.9317908  56.9952758  30.7121439  16.5133178  56.8046632
  40.7751646  24.4489375  53.9708854  40.8249651  24.2839382  54.9124377
  40.6665569  23.5816634  53.5806735  29.6587904  27.1277921  41.2600943
  29.8076025  27.8113385  40.6067616  30.4654348  27.1083011  41.7750399
  38.0655408  20.4320303  55.2868161  38.9665271  20.2926768  54.9952159
  38.1403383  20.5974758  56.2266338  32.3998213  17.8087158  54.1321347
  31.5301523  18.1020724  53.8603936  32.6357694  18.3927603  54.8528611
  42.2769843  26.8686316  54.2150876  41.9854651  27.2316297  55.0514337
  41.6641974  26.1553325  54.0364208  43.4765525  24.4339196  46.7353446
  44.3112416  24.8729000  46.8991006  43.6124654  23.9577849  45.9161692
  40.5257031  21.9918931  52.6830934  41.0011152  22.1846577  51.8749785
  39.6022596  22.0478117  52.4374317  27.4140537  23.1543098  42.2662012
  27.1686579  22.2505428  42.4642222  27.5836452  23.1560249  41.3241490
  35.1037247  14.0266775  51.6486768  35.6219191  14.7627801  51.3233256
  34.7492380  14.3330768  52.4833527  26.6836185  18.8871456  39.7648173
  25.9905430  18.9615811  39.1088209  26.4387937  18.1231799  40.2869690
  35.3549841  10.4467057  47.1687664  35.6351595   9.7790246  47.7948091
  36.1400448  10.6396153  46.6562328  33.1583310  29.6226051  38.7312690
  32.5857277  30.2416238  38.2783162  33.7316104  30.1725413  39.2652612
  39.2258700  18.8684691  50.9159239  40.1776123  18.9682789  50.9371463
  39.0562150  18.0762960  51.4257324  37.2473079  15.9540274  51.1018640
  36.6523011  16.2345287  50.4065129  36.9622776  16.4434175  51.8735381
  36.3780570  29.9063201  39.8621273  37.3111243  29.8408763  40.0654148
  36.2903783  30.7419468  39.4035805  39.0068586  29.2229071  36.8225220
  38.9282218  28.8888935  37.7160978  39.8278253  29.7150839  36.8216693
  41.7046778  22.0890811  50.0301539  41.6723098  21.1506812  50.2161223
  42.3147401  22.1674847  49.2967364  33.5430108  20.9586864  36.0728743
  34.4889213  20.8293072  36.1417161  33.1644353  20.2201526  36.5498171
  41.8541266  18.8801854  50.0759822  41.3380315  18.0960311  49.8889751
  42.7381215  18.5520571  50.2406342  39.5151993  12.6242870  46.0355635
  39.3176814  12.3157958  46.9198967  40.1251699  13.3504509  46.1653565
  47.5223327  23.1506818  49.1707576  48.2526716  22.8892106  49.7315279
  46.9130273  22.4135540  49.2109644  45.6038625  21.2914680  49.7682027
  44.8771788  21.1570645  49.1598519  45.1885911  21.5991509  50.5738745
  33.4268801  25.0104610  57.5329400  34.3471810  25.1883209  57.7269446
  33.3918384  24.0660655  57.3809099  31.7273026  18.8836840  36.0083628
  30.8204481  18.5869953  36.0846342  32.0049007  18.5866658  35.1417914
  22.6450966  20.2043204  46.4582675  22.3253750  19.3508512  46.1657049
  22.0984394  20.4191782  47.2140642  26.4230874  22.9205645  50.1752181
  26.6416883  23.8522752  50.1940215  26.8356647  22.5613619  50.9606985
  33.3435091  13.4273730  42.1627870  32.5335820  13.0820815  42.5383116
  34.0319508  13.1181274  42.7515481  35.2725640  12.5051777  43.7852166
  35.8256678  12.9247230  44.4442189  35.5095726  11.5787525  43.8275122
  31.2958739  18.4938850  59.5654930  31.1955466  19.4433207  59.4967021
  31.0780281  18.1657089  58.6931000  30.4971810  15.7423775  36.1495607
  31.3590974  16.0678674  36.4091425  30.6822154  14.9555271  35.6368673
  22.5139226  23.8246115  48.4275796  21.8202697  23.4100068  47.9145751
  23.2612217  23.8666652  47.8309215  38.6504447  14.6152302  43.2930830
  38.0703116  15.2737106  42.9108883  38.3840379  13.7929646  42.8818248
  37.1008013  14.0157360  45.4952151  37.6007791  14.1273894  44.6866470
  37.7443621  13.7118412  46.1352959  31.1590009  21.9235989  58.3819992
  30.6757091  22.7236349  58.5883881  31.2450948  21.9343934  57.4287436
  24.4275969  23.7564369  46.3041811  24.4046657  23.8552056  45.3523694
  24.7376605  24.6029520  46.6258977  27.0863346  25.8140524  50.4188425
  28.0406600  25.7824466  50.3518357  26.8875870  25.3531148  51.2338651
  27.6762729  24.3841640  52.9859223  28.4955618  24.8785719  53.0094060
  27.9499536  23.4673608  52.9576791  37.4329325  16.7752392  42.3487179
  36.5455180  17.0602043  42.1307373  37.8483314  16.6146156  41.5014456
  40.7843861  16.7998913  46.0641518  41.5604251  17.2895366  46.3366135
  40.0591995  17.2256967  46.5213387  43.2216419  17.5126532  47.1215459
  43.8160910  17.2722268  46.4108767  43.2943003  16.7933663  47.7488995
  25.4413575  31.3560143  47.4358623  25.3068043  30.5960544  46.8696621
  25.0245637  32.0801043  46.9687412  36.5772538  26.5397067  36.4435199
  37.2808388  26.7447069  37.0592854  35.8535187  27.1073829  36.7084282
  37.4070348  22.2906928  42.5637469  37.3505550  22.7475480  41.7245101
  37.9598691  21.5297613  42.3860312  41.2175154  18.0796660  43.3887588
  40.9612089  17.6793296  44.2195796  40.5928022  18.7940454  43.2637727
  45.5287492  20.8192733  45.8958880  44.9687050  20.8885923  46.6690442
  44.9230996  20.6433718  45.1758376  28.5982701  32.2529460  47.6477066
  28.4815085  33.1974893  47.5455756  27.7775147  31.9503022  48.0362865
  38.4859236  26.9779596  38.4933659  39.3204840  26.5460795  38.3111133
  38.3243579  26.8061610  39.4210553  38.1405128  23.4811709  39.8589998
  38.0853932  23.3155981  38.9178442  37.5151183  24.1887742  40.0152188
  22.9297643  18.7179774  53.6851420  23.5756506  18.2078728  54.1738645
  22.7214794  19.4548455  54.2594845  35.4551035  25.7860621  59.1843561
  36.3242195  25.9601274  58.8230196  34.9757786  26.6055038  59.0619290
  31.4501253  12.9819818  39.4375316  31.4379923  13.9261658  39.5943587
  32.3424675  12.7989964  39.1434778  29.6237215  32.9057722  50.8632994
  30.5264462  32.9381333  51.1799489  29.3974585  31.9758173  50.8779330
  31.3790817  31.6588709  47.5243073  30.4286448  31.6590570  47.4107445
  31.6823303  30.9121443  47.0079108  35.2653373   9.5762595  43.6921253
  34.4985769   9.0221082  43.8377936  35.6764078   9.6484464  44.5535405
  27.2695134  15.8647391  57.7826434  28.1326595  15.5084196  57.9929759
  26.6960544  15.5261286  58.4701839  43.9233217  37.4476675  48.5250360
  43.5851729  37.3317740  47.6370895  44.7922985  37.0467840  48.5051366
  39.7820033  39.3012152  44.5147251  39.2184898  39.2102089  43.7463539
  39.6672428  38.4812056  44.9949744  44.4053000  38.6011527  54.4836566
  44.3941641  38.2064325  53.6117069  44.5673639  37.8677600  55.0770337
  37.3284465  40.7963343  47.3531472  38.1205757  40.4554168  46.9377771
  37.5681115  40.9058318  48.2733625  39.2875219  40.0572257  40.2248850
  40.0606095  39.5101244  40.0861726  39.6400617  40.9216506  40.4363312
  41.1260261  41.3848639  53.4315750  40.8350127  42.2894270  53.3162416
  41.7617245  41.4265166  54.1459819  42.0516468  38.7625487  50.0217109
  42.6480040  38.5381510  49.3074072  42.1091439  38.0210233  50.6242557
  41.6241496  36.2164923  37.8567300  41.8767017  35.6946444  37.0950763
  40.6866055  36.0531068  37.9593984  46.6684779  35.2200701  45.6642043
  47.4547868  34.8020124  45.3132461  46.9323484  36.1246793  45.8323692
  46.8394857  40.6573551  40.3630700  46.2040690  40.7308178  41.0751605
  46.5092263  41.2467150  39.6849780  52.0693206  35.1575934  46.5675022
  52.8018378  34.5875151  46.8012851  51.3132562  34.7697535  47.0081528
  41.3437785  38.1193029  40.0591675  41.2274043  37.4437932  40.7272760
  41.4540045  37.6325403  39.2423828  43.6869326  37.5803176  43.7638364
  43.3227533  37.0533797  44.4751286  44.5436442  37.1901645  43.5904850
  49.5918627  28.8697508  51.0269631  49.2601951  29.7392919  50.8030846
  48.9964240  28.5533792  51.7063661  43.3274813  32.6093075  38.7599713
  43.4949215  33.4773312  39.1270184  43.1371982  32.7720357  37.8361002
  46.0850146  41.0710054  50.4265543  45.7850869  41.9735093  50.3181351
  45.7401206  40.8042238  51.2786696  39.5362628  37.5223851  46.4602248
  38.6113124  37.3900065  46.6679940  39.7847041  38.3018070  46.9572190
  49.4847290  33.5892595  48.1062981  48.5764167  33.5208003  47.8121742
  49.4334886  34.0664539  48.9344806  43.3064034  35.0650733  39.7446380
  43.1863659  35.5107784  40.5831860  42.6116622  35.4136051  39.1859918
  36.8971439  37.1657125  47.2946037  37.0263820  37.4191604  48.2085449
  36.2168890  37.7584833  46.9750692  51.3508936  31.7909033  49.8840855
  50.7083317  32.0841566  49.2380649  50.8463865  31.6761953  50.6894051
  49.0049100  35.5372206  40.5726714  49.9166956  35.7699593  40.3974411
  48.4958747  36.1209250  40.0101792  41.8134528  37.8167693  55.6115845
  42.5549212  38.3552737  55.3350669  41.1071514  38.4433982  55.7687397
  47.2889868  39.9596834  54.2088006  47.6973224  39.5179244  53.4642639
  46.5667129  39.3849461  54.4622199  43.6420938  34.8969441  51.5821563
  44.4882133  35.3208854  51.7256212  43.5819575  34.2403065  52.2760126
  47.6118682  40.5198025  47.9640295  46.9827545  40.6843739  47.2616363
  47.2244344  40.9339634  48.7351259  46.7920383  32.5573809  53.2402737
  46.5481315  33.3115870  52.7037013  47.0680314  32.9359157  54.0749984
  48.7458846  39.1012421  51.9180003  48.9575741  39.7444181  51.2414384
  48.6988594  38.2674738  51.4501933  46.3485075  31.7130242  48.8216575
  45.4869554  32.0111496  49.1133312  46.3747509  31.9300641  47.8897607
  40.0570725  39.8043914  48.1670144  40.6272082  40.2331183  47.5287628
  40.6478837  39.5226499  48.8654329  42.1015530  36.3795585  42.0379946
  42.8039574  36.8316629  42.5053872  41.7696159  35.7379404  42.6659839
  35.8440864  34.6379138  47.3397079  35.0539918  34.8936666  46.8637190
  36.3352112  35.4527476  47.4449120  37.7955610  35.0023717  44.2980556
  36.9986773  35.1142411  44.8164051  37.5681202  35.3410369  43.4321446
  43.6261277  41.5268420  52.2463070  43.6905710  41.9888827  53.0821242
  42.9172201  40.8965785  52.3745380  34.1278567  34.8909628  49.7712070
  34.3786606  35.7756638  50.0369646  34.6638116  34.7114230  48.9987162
  57.9510667  38.3223125  46.4387331  57.1974375  37.7530523  46.2831336
  58.0858208  38.2885790  47.3857966  36.7938692  40.7111966  42.6869976
  37.3063213  41.5055216  42.8375541  37.4461405  40.0138256  42.6203577
  37.8885934  35.8742354  54.6454892  37.7739449  34.9727611  54.9461991
  37.0330451  36.1206051  54.2939709  44.9677771  43.8160094  56.2442393
  44.5241625  43.0296473  55.9263297  45.6294985  44.0039245  55.5786284
  43.5232064  41.6107024  55.1147302  44.0560400  40.8495312  54.8846610
  42.9946145  41.3180675  55.8571457  46.6901758  26.7167090  50.6440944
  46.3466028  27.6068731  50.5680055  47.0580721  26.5268747  49.7810529
  34.7587609  39.0400620  43.4629546  35.5962831  39.4497628  43.2463254
  34.9365877  38.1000062  43.4329740  46.6552041  36.7075701  39.1513379
  46.1398665  37.4780305  39.3901767  46.3829350  36.0340837  39.7746441
  44.2399152  31.5525401  44.2098618  43.3840749  31.1632252  44.0304256
  44.6526104  31.6317362  43.3498403  45.7698299  29.0871745  48.6090177
  45.2663094  29.0501880  47.7957983  46.0628906  29.9964487  48.6686834
  42.0141185  29.1710474  47.6156359  42.8794182  28.9753283  47.2562249
  42.0818694  28.9420826  48.5425716  51.6286315  39.4608055  41.0866553
  50.8515758  39.1219215  40.6421715  52.3077796  39.4660678  40.4121518
  46.4438344  34.5802793  40.9773161  46.1388480  34.8948942  41.8283304
  47.3968786  34.6584213  41.0200493  49.8677622  38.9342037  47.7433161
  49.2101297  39.6241298  47.8313289  50.6718021  39.3238468  48.0867147
  39.6203504  31.4012682  44.9872726  40.1947256  31.1787864  44.2545919
  40.2074486  31.4701377  45.7401327  48.6783081  37.2886409  45.7937103
  49.1914963  37.9216401  46.2958812  49.3284305  36.6887605  45.4280463
  39.9473091  33.4317143  39.0068611  39.1110403  33.7691830  39.3277886
  39.8077861  33.2966123  38.0695748  41.9226172  28.2753931  43.7147795
  41.2690584  27.9602948  43.0904410  41.8806646  27.6529672  44.4407618
  43.0337376  38.5573226  35.6301088  42.1264438  38.3262480  35.8292236
  43.5308408  37.7610846  35.8175069  45.1563912  34.7635865  48.0395443
  44.2386473  34.9850812  47.8817131  45.5724056  34.8382175  47.1807150
  45.9398960  36.1627280  43.1698123  46.6870779  36.6748678  42.8605245
  46.2090549  35.8411333  44.0302517  44.2125610  38.6585821  40.1525078
  43.3036829  38.3744854  40.2497547  44.2420694  39.0784900  39.2928384
  48.3877797  33.1984397  45.1516913  47.6500554  32.6861783  45.4827155
  48.6404570  32.7584778  44.3400189  48.4889424  25.9760649  45.7458682
  48.7948301  25.1158012  45.4584597  49.2142029  26.5678269  45.5457676
  34.7813780  36.3791335  44.1340280  34.5838180  35.7860696  43.4091346
  34.2260444  36.0743545  44.8516219  42.7610504  36.2714442  46.2534873
  42.8159114  35.3188278  46.1777350  41.9501706  36.4273881  46.7376171
  43.9101698  40.1994565  37.4913156  43.4721128  39.4830424  37.0318794
  44.6512139  40.4270680  36.9298248  40.7002864  34.8891502  44.0125252
  39.8870729  35.1885672  44.4190444  41.1961858  34.4947190  44.7299734
  46.2977075  35.3533326  52.8440146  46.6526463  35.5804799  53.7034611
  46.9449207  35.6851703  52.2217401  52.0274812  38.4751762  43.5489475
  51.8892711  38.6653358  42.6210664  51.6711031  39.2371145  44.0057526
  40.1916939  32.4609857  49.6286487  40.8316318  32.3198616  48.9309450
  39.3594469  32.1744370  49.2525089  52.0544192  40.5428289  48.5600746
  52.4880699  40.4503578  49.4083800  52.7675773  40.5185789  47.9220762
  37.2760006  35.9055369  41.8181232  36.3457594  35.8439825  42.0351194
  37.3717478  35.3831322  41.0217873  37.1945555  32.4310182  44.4059474
  37.4552372  33.3455515  44.2968634  38.0162727  31.9634625  44.5556086
  38.6670480  33.8447939  51.5758298  39.3393534  33.6365301  50.9270947
  37.8400267  33.6470025  51.1363530  44.7460187  38.3090645  51.6520779
  45.6752247  38.4601805  51.4789746  44.3251217  38.3974666  50.7969425
  43.5448518  42.3341309  49.4219316  43.4059604  41.9660094  50.2945254
  42.7563115  42.8488949  49.2503274  39.0697978  37.1190542  52.3360735
  38.9317776  36.3870781  52.9372274  39.9802901  37.0299442  52.0544923
  48.0312925  39.0578946  37.0845214  47.4142096  38.3325775  36.9878266
  47.5629414  39.8188307  36.7412288  41.6980278  36.8310501  51.8244415
  42.4079897  36.1903694  51.7831033  41.6549586  37.0823396  52.7470596
  39.8211471  33.2764371  36.2066518  38.9440937  33.1553172  35.8428765
  40.2969224  32.4850449  35.9545407  31.3413611  38.0641531  46.3008025
  32.0284651  37.7503261  45.7129041  31.1861740  38.9682895  46.0275277
  36.1448333  32.9531727  50.7293049  36.0606522  32.3457397  49.9943459
  35.3231040  33.4440745  50.7302545  46.3172047  31.4385291  46.0963244
  46.8140747  30.6855253  45.7764314  45.5459029  31.4749607  45.5306453
  54.1701805  37.1425656  47.7381535  54.1591681  38.0250372  47.3675469
  53.3019184  36.7897207  47.5436073  47.4001828  40.1956978  43.6701667
  46.4658107  40.3158440  43.5006372  47.5778496  39.2929445  43.4061677
  42.9007016  33.5802674  45.8234929  42.5304804  33.0273714  46.5115834
  43.3966109  32.9760807  45.2709929  50.7874379  36.0374297  44.2051701
  51.2534832  36.8702289  44.1312004  51.2381880  35.5719279  44.9096960
  40.7296215  44.0400169  52.9189947  41.4305674  44.6736652  53.0719341
  40.2591330  44.3814900  52.1585586  48.7591042  28.4054884  48.2442603
  47.8454122  28.6359111  48.4124810  49.1884144  28.4893328  49.0956635
  48.5297501  36.5944776  50.7442497  47.8768951  36.8420684  50.0894950
  48.9077880  35.7808914  50.4104974  30.9181587  36.1442124  48.5725492
  30.9565687  35.6105715  49.3662610  30.4121880  35.6177329  47.9536470
  38.2972350  30.9906664  52.0688035  38.3613676  31.8521495  51.6565432
  38.2339470  30.3780666  51.3360393  34.5490165  34.8706226  41.6479424
  34.8443606  33.9616904  41.5946477  33.6478201  34.8493965  41.3260426
  38.0784412  32.9462223  47.6306972  37.3570998  33.5598190  47.4914446
  38.8677668  33.4819987  47.5523618  36.2778007  32.5520324  41.7718749
  35.9490713  31.6717703  41.5893855  36.6317377  32.4967992  42.6595138
  39.3919830  32.8393293  42.1394227  39.7315902  33.3679215  41.4172835
  39.8391950  33.1773700  42.9152793  42.0863271  31.2230344  51.5897295
  41.7460091  30.4238157  51.9917974  41.3802277  31.5232055  51.0174128
  42.7379742  28.3079657  50.0424618  43.5605812  27.8340135  49.9203508
  42.9817806  29.0870140  50.5423304  41.3787977  31.3367915  40.3387519
  42.0996339  31.7149168  39.8351236  40.7553281  32.0556792  40.4422497
  45.5219100  32.0413064  41.2745852  45.7382714  32.9237702  40.9734680
  45.0413167  31.6499277  40.5451494  40.2618321  34.9998777  47.8516596
  40.1162902  35.3139080  48.7440878  39.7843525  35.6183678  47.2987495
  42.1214704  31.9901325  47.8997486  42.1076273  31.0942419  47.5629784
  42.8387132  31.9971989  48.5335772  43.9740835  32.4238665  49.9450613
  43.7158613  33.3455736  49.9434944  43.4425875  32.0269100  50.6351077
  34.7363983  37.5404122  50.7904257  34.1917451  38.3163930  50.9224532
  35.6143333  37.8874926  50.6323379  41.5251600  30.8715706  43.1685056
  41.6467511  29.9432352  43.3675943  41.2353642  30.8854391  42.2563371
  44.3942790  28.5570616  46.3051776  44.4164487  28.6209949  45.3503755
  44.8110849  27.7175125  46.4992282  35.5230005  36.6674018  53.6834414
  34.7811741  36.8156653  54.2699045  35.2022749  36.9282284  52.8201164
  43.4673668  46.2089996  53.4814804  43.7760794  45.9639143  54.3537504
  44.2649150  46.4136635  52.9933675  34.1695224  42.4725773  46.6733743
  33.3327132  42.0447947  46.4917744  34.1418869  42.6658216  47.6104534
  40.4981659  42.4569838  41.2600943  40.6469779  43.1405303  40.6067616
  41.3048102  42.4374928  41.7750399  54.3159279  39.7631114  46.7353446
  55.1506171  40.2020918  46.8991006  54.4518408  39.2869767  45.9161692
  38.2534292  38.4835016  42.2662012  38.0080334  37.5797346  42.4642222
  38.4230206  38.4852166  41.3241490  45.9431002  29.3558692  51.6486768
  46.4612946  30.0919719  51.3233256  45.5886135  29.6622686  52.4833527
  37.5229939  34.2163373  39.7648173  36.8299184  34.2907728  39.1088209
  37.2781691  33.4523717  40.2869690  46.1943596  25.7758975  47.1687664
  46.4745350  25.1082164  47.7948091  46.9794203  25.9688070  46.6562328
  50.0652454  34.1976609  50.9159239  51.0169877  34.2974706  50.9371463
  49.8955905  33.4054877  51.4257324  48.0866834  31.2832192  51.1018640
  47.4916766  31.5637205  50.4065129  47.8016530  31.7726093  51.8735381
  44.3823863  36.2878781  36.0728743  45.3282968  36.1584990  36.1417161
  44.0038108  35.5493443  36.5498171  50.3545747  27.9534787  46.0355635
  50.1570569  27.6449876  46.9198967  50.9645453  28.6796426  46.1653565
  58.3617082  38.4798735  49.1707576  59.0920470  38.2184023  49.7315279
  57.7524027  37.7427457  49.2109644  42.5666780  34.2128758  36.0083628
  41.6598235  33.9161871  36.0846342  42.8442761  33.9158576  35.1417914
  33.4844720  35.5335121  46.4582675  33.1647505  34.6800429  46.1657049
  32.9378149  35.7483699  47.2140642  37.2624628  38.2497562  50.1752181
  37.4810638  39.1814670  50.1940215  37.6750402  37.8905537  50.9606985
  44.1828846  28.7565648  42.1627870  43.3729574  28.4112732  42.5383116
  44.8713263  28.4473191  42.7515481  46.1119394  27.8343694  43.7852166
  46.6650433  28.2539148  44.4442189  46.3489480  26.9079442  43.8275122
  41.3365565  31.0715693  36.1495607  42.1984729  31.3970591  36.4091425
  41.5215909  30.2847189  35.6368673  33.3532980  39.1538033  48.4275796
  32.6596452  38.7391986  47.9145751  34.1005971  39.1958569  47.8309215
  49.4898201  29.9444219  43.2930830  48.9096870  30.6029024  42.9108883
  49.2234134  29.1221564  42.8818248  47.9401768  29.3449277  45.4952151
  48.4401546  29.4565812  44.6866470  48.5837375  29.0410330  46.1352959
  35.2669723  39.0856286  46.3041811  35.2440411  39.1843974  45.3523694
  35.5770360  39.9321437  46.6258977  37.9257101  41.1432442  50.4188425
  38.8800354  41.1116384  50.3518357  37.7269624  40.6823065  51.2338651
  38.5156483  39.7133558  52.9859223  39.3349372  40.2077636  53.0094060
  38.7893291  38.7965526  52.9576791  48.2723079  32.1044310  42.3487179
  47.3848934  32.3893960  42.1307373  48.6877068  31.9438073  41.5014456
  51.6237615  32.1290831  46.0641518  52.3998005  32.6187283  46.3366135
  50.8985750  32.5548885  46.5213387  54.0610174  32.8418450  47.1215459
  54.6554665  32.6014186  46.4108767  54.1336758  32.1225581  47.7488995
  48.2464103  37.6198846  42.5637469  48.1899304  38.0767397  41.7245101
  48.7992445  36.8589530  42.3860312  52.0568909  33.4088578  43.3887588
  51.8005843  33.0085213  44.2195796  51.4321777  34.1232372  43.2637727
  56.3681247  36.1484651  45.8958880  55.8080805  36.2177840  46.6690442
  55.7624750  35.9725636  45.1758376  48.9798882  38.8103627  39.8589998
  48.9247686  38.6447898  38.9178442  48.3544938  39.5179660  40.0152188
  33.7691397  34.0471691  53.6851420  34.4150261  33.5370645  54.1738645
  33.5608548  34.7840373  54.2594845  42.2895008  28.3111736  39.4375316
  42.2773678  29.2553576  39.5943587  43.1818430  28.1281881  39.1434778
  46.1047127  24.9054513  43.6921253  45.3379523  24.3512999  43.8377936
  46.5157832  24.9776381  44.5535405  68.7904421  53.6515043  46.4387331
  68.0368130  53.0822441  46.2831336  68.9251963  53.6177708  47.3857966
  65.6120169  53.6217793  44.3430998  66.0551315  52.8725118  43.9450122
  64.7346679  53.6127930  43.9604730  60.3291956  45.2736137  43.2930830
  59.7490625  45.9320941  42.9108883  60.0627888  44.4513482  42.8818248
  62.4631370  47.4582749  46.0641518  63.2391760  47.9479201  46.3366135
  61.7379504  47.8840803  46.5213387  62.8962663  48.7380495  43.3887588
  62.6399598  48.3377131  44.2195796  62.2715531  49.4524289  43.2637727
  56.9440882  40.2346430  43.6921253  56.1773277  39.6804917  43.8377936
  57.3551587  40.3068299  44.5535405  68.7931020  68.1533083  48.5888835
  69.4309430  68.0339830  47.8852176  68.6751863  69.1013926  48.6476788
  65.6020726  68.1060511  48.5250360  65.2639237  67.9901575  47.6370895
  66.4710494  67.7051676  48.5051366  61.4607542  69.9595987  44.5147251
  60.8972407  69.8685924  43.7463539  61.3459937  69.1395892  44.9949744
  66.0840509  69.2595362  54.4836566  66.0729150  68.8648161  53.6117069
  66.2461148  68.5261435  55.0770337  59.0071974  71.4547179  47.3531472
  59.7993266  71.1138003  46.9377771  59.2468624  71.5642154  48.2733625
  67.0407100  73.6266955  39.8261716  66.3895080  74.2121035  39.4395730
  67.8351463  74.1573150  39.8856753  60.9662728  70.7156092  40.2248850
  61.7393604  70.1685079  40.0861726  61.3188126  71.5800341  40.4363312
  62.8047770  72.0432474  53.4315750  62.5137636  72.9478105  53.3162416
  63.4404754  72.0849002  54.1459819  63.7303977  69.4209323  50.0217109
  64.3267549  69.1965345  49.3074072  63.7878948  68.6794068  50.6242557
  63.3029005  66.8748758  37.8567300  63.5554526  66.3530279  37.0950763
  62.3653564  66.7114903  37.9593984  68.3472288  65.8784536  45.6642043
  69.1335377  65.4603960  45.3132461  68.6110992  66.7830629  45.8323692
  68.5182366  71.3157387  40.3630700  67.8828198  71.3892013  41.0751605
  68.1879772  71.9050986  39.6849780  73.7480715  65.8159770  46.5675022
  74.4805887  65.2458986  46.8012851  72.9920071  65.4281370  47.0081528
  63.0225294  68.7776864  40.0591675  62.9061552  68.1021767  40.7272760
  63.1327554  68.2909238  39.2423828  65.3656835  68.2387011  43.7638364
  65.0015042  67.7117632  44.4751286  66.2223951  67.8485480  43.5904850
  65.0062322  63.2676911  38.7599713  65.1736724  64.1357147  39.1270184
  64.8159491  63.4304192  37.8361002  67.7637655  71.7293890  50.4265543
  67.4638378  72.6318928  50.3181351  67.4188715  71.4626073  51.2786696
  61.2150137  68.1807687  46.4602248  60.2900633  68.0483901  46.6679940
  61.4634550  68.9601906  46.9572190  71.1634799  64.2476430  48.1062981
  70.2551676  64.1791838  47.8121742  71.1122395  64.7248375  48.9344806
  64.9851543  65.7234568  39.7446380  64.8651168  66.1691619  40.5831860
  64.2904131  66.0719886  39.1859918  62.7458435  78.4938210  43.3936511
  62.6682465  79.4446035  43.4724992  62.1420079  78.1484083  44.0511437
  73.0296445  62.4492868  49.8840855  72.3870826  62.7425401  49.2380649
  72.5251374  62.3345789  50.6894051  70.6836609  66.1956041  40.5726714
  71.5954465  66.4283428  40.3974411  70.1746256  66.7793086  40.0101792
  68.9677377  70.6180669  54.2088006  69.3760733  70.1763080  53.4642639
  68.2454638  70.0433297  54.4622199  69.2906191  71.1781860  47.9640295
  68.6615054  71.3427574  47.2616363  68.9031853  71.5923469  48.7351259
  73.1695423  72.1136298  45.3184659  72.4846461  72.4935199  44.7681692
  73.2539273  72.7231624  46.0516607  70.4246355  69.7596257  51.9180003
  70.6363250  70.4028017  51.2414384  70.3776103  68.9258573  51.4501933
  64.8434153  70.9156268  45.2290380  65.3072499  71.1943971  44.4395003
  64.5790951  70.0139713  45.0463471  61.7358234  70.4627750  48.1670144
  62.3059591  70.8915018  47.5287628  62.3266346  70.1810334  48.8654329
  63.7803039  67.0379420  42.0379946  64.4827083  67.4900464  42.5053872
  63.4483668  66.3963239  42.6659839  71.5392183  72.6368212  50.0902360
  72.3609627  72.2348399  49.8085042  71.5354586  72.5336446  51.0418476
  65.3048786  72.1852255  52.2463070  65.3693219  72.6472663  53.0821242
  64.5959710  71.5549620  52.3745380  79.6298176  68.9806961  46.4387331
  78.8761884  68.4114359  46.2831336  79.7645717  68.9469625  47.3857966
  65.0196804  73.8520363  42.1142051  64.8842479  74.6971899  42.5426899
  65.5606616  74.0539641  41.3507985  58.4726201  71.3695801  42.6869976
  58.9850722  72.1639051  42.8375541  59.1248914  70.6722091  42.6203577
  60.2821086  74.4861557  44.7692729  60.4587714  75.4079522  44.5813713
  61.0777920  74.1719977  45.1987109  66.6465280  74.4743929  56.2442393
  66.2029134  73.6880308  55.9263297  67.3082494  74.6623080  55.5786284
  61.4052401  76.0039731  50.7703071  61.9559827  75.8756794  49.9980065
  60.5663877  76.3034620  50.4197964  68.7446518  74.7546729  54.2723794
  68.7264994  75.5755610  53.7804063  69.6666438  74.6300805  54.4973935
  65.2019573  72.2690859  55.1147302  65.7347909  71.5079147  54.8846610
  64.6733654  71.9764511  55.8571457  56.4375118  69.6984455  43.4629546
  57.2750340  70.1081464  43.2463254  56.6153386  68.7583897  43.4329740
  68.3339550  67.3659536  39.1513379  67.8186174  68.1364141  39.3901767
  68.0616859  66.6924672  39.7746441  65.9186661  62.2109237  44.2098618
  65.0628258  61.8216087  44.0304256  66.3313613  62.2901198  43.3498403
  73.3073824  70.1191891  41.0866553  72.5303267  69.7803050  40.6421715
  73.9865305  70.1244514  40.4121518  68.1225853  65.2386628  40.9773161
  67.8175989  65.5532777  41.8283304  69.0756295  65.3168048  41.0200493
  66.5672285  71.3976851  42.6266114  66.0393647  70.6629611  42.3139352
  66.0659788  72.1751528  42.3806083  71.5465131  69.5925872  47.7433161
  70.8888806  70.2825133  47.8313289  72.3505530  69.9822304  48.0867147
  70.3570590  67.9470245  45.7937103  70.8702472  68.5800236  46.2958812
  71.0071814  67.3471440  45.4280463  64.7124885  69.2157062  35.6301088
  63.8051947  68.9846315  35.8292236  65.2095917  68.4194681  35.8175069
  67.6192964  77.9254569  38.5497774  66.9454663  78.2286266  39.1582732
  68.0058786  78.7283649  38.2003231  66.8351421  65.4219700  48.0395443
  65.9173982  65.6434647  47.8817131  67.2511565  65.4966011  47.1807150
  67.6186469  66.8211116  43.1698123  68.3658288  67.3332513  42.8605245
  67.8878058  66.4995169  44.0302517  65.8913119  69.3169657  40.1525078
  64.9824338  69.0328689  40.2497547  65.9208203  69.7368735  39.2928384
  71.1232386  72.9276246  43.9216245  70.6694713  72.0867156  43.9781436
  70.4926353  73.5637644  44.2591025  70.0665306  63.8568232  45.1516913
  69.3288063  63.3445618  45.4827155  70.3192079  63.4168614  44.3400189
  69.5665325  74.7652743  44.8566063  69.8588300  75.3257800  44.1378429
  70.0763946  75.0581304  45.6119222  70.1676933  56.6344484  45.7458682
  70.4735810  55.7741847  45.4584597  70.8929538  57.2262104  45.5457676
  64.4398013  66.9298277  46.2534873  64.4946623  65.9772114  46.1777350
  63.6289215  67.0857716  46.7376171  65.5889207  70.8578400  37.4913156
  65.1508637  70.1414259  37.0318794  66.3299647  71.0854515  36.9298248
  64.5298951  75.5433094  45.9459517  64.4875129  75.7693940  45.0168049
  65.4461650  75.3096468  46.0945318  73.7062321  69.1335597  43.5489475
  73.5680220  69.3237193  42.6210664  73.3498540  69.8954980  44.0057526
  73.7331701  71.2012124  48.5600746  74.1668208  71.1087413  49.4083800
  74.4463282  71.1769625  47.9220762  62.6464751  72.4196123  45.7421479
  63.4405350  71.9246443  45.5404054  61.9356444  71.8913986  45.3789185
  67.4659596  74.8014218  50.0933847  67.5196618  75.3705155  50.8611563
  66.5974377  74.9716103  49.7287884  74.5947251  71.2435825  51.0933632
  74.7883141  72.1481635  51.3392907  74.4947869  70.7843244  51.9272217
  69.6562359  71.3942568  56.6674512  69.5047866  71.1653119  55.7504596
  69.6467039  72.3513169  56.6805857  66.4247696  68.9674480  51.6520779
  67.3539756  69.1185640  51.4789746  66.0038726  69.0558501  50.7969425
  65.2236027  72.9925145  49.4219316  65.0847113  72.6243929  50.2945254
  64.4350624  73.5072784  49.2503274  65.8184179  78.0934241  40.7644853
  65.9935935  77.6222284  41.5790476  65.1316967  78.7200007  40.9926114
  66.7741243  72.3706747  46.8108154  66.4391075  72.3307517  47.7065804
  66.2745188  71.7051463  46.3378564  60.7485487  67.7774378  52.3360735
  60.6105284  67.0454616  52.9372274  61.6590410  67.6883278  52.0544923
  69.7100434  69.7162782  37.0845214  69.0929605  68.9909610  36.9878266
  69.2416923  70.4772142  36.7412288  63.3767787  67.4894337  51.8244415
  64.0867406  66.8487529  51.7831033  63.3337095  67.7407232  52.7470596
  60.3845265  81.2423604  47.5384713  60.6241863  81.8742128  48.2163732
  59.5414461  80.8911644  47.8250072  64.8973127  77.0502726  49.9426217
  64.8243298  77.8557698  50.4545522  64.4550520  77.2494692  49.1174238
  64.6862906  76.2874496  43.4529039  63.9030428  76.8296177  43.5467263
  65.3855651  76.8048476  43.8523280  67.9959556  62.0969126  46.0963244
  68.4928256  61.3439088  45.7764314  67.2246538  62.1333443  45.5306453
  75.8489314  67.8009491  47.7381535  75.8379190  68.6834207  47.3675469
  74.9806693  67.4481042  47.5436073  67.3571810  76.9489560  52.0984376
  68.0699782  77.5837025  52.0260277  66.8661839  77.0453426  51.2824378
  69.0789337  70.8540813  43.6701667  68.1445616  70.9742276  43.5006372
  69.2566005  69.9513280  43.4061677  64.5794525  64.2386509  45.8234929
  64.2092313  63.6857549  46.5115834  65.0753618  63.6344642  45.2709929
  72.4661888  66.6958132  44.2051701  72.9322341  67.5286124  44.1312004
  72.9169389  66.2303114  44.9096960  62.4083724  74.6984004  52.9189947
  63.1093183  75.3320487  53.0719341  61.9378839  75.0398736  52.1585586
  70.5338119  73.0401954  41.2037854  70.8097963  72.9258548  42.1131728
  69.6642618  72.6419439  41.1650027  70.4378551  59.0638719  48.2442603
  69.5241631  59.2942946  48.4124810  70.8671653  59.1477164  49.0956635
  70.2085010  67.2528611  50.7442497  69.5556460  67.5004519  50.0894950
  70.5865389  66.4392750  50.4104974  67.1692183  77.2888305  44.8470667
  67.3514578  76.4709961  45.3098419  67.9925169  77.5055997  44.4095557
  67.5034349  76.2156490  42.1085716  68.0322115  75.7048944  41.4955878
  67.7662569  75.8999020  42.9731249  66.2572583  67.9948422  57.2308534
  65.5813220  67.8942552  57.9010909  67.0800216  67.8387636  57.6944531
  58.0051442  74.2320359  49.8521049  58.5904878  73.4864047  49.9848953
  57.8076280  74.5424316  50.7357713  60.8590097  77.2671606  44.8683492
  60.1900472  77.7517734  44.3847532  60.7202967  77.5140827  45.7826870
  64.9995365  79.3015350  51.4666150  65.5513674  79.4646971  52.2315235
  65.3401559  79.8919788  50.7946175  68.1363753  77.2497325  48.4529832
  68.0114892  76.4487065  47.9440778  68.7942844  77.7443519  47.9643802
  70.1998661  75.0506346  50.0809382  69.2528997  74.9311697  50.0087709
  70.5481434  74.1628844  50.1635644  67.2045094  74.8459062  46.2813734
  67.0570057  73.9175769  46.4621304  68.0298588  74.8679152  45.7970810
  70.8079216  75.6687620  47.3678607  71.7325764  75.4630482  47.2303058
  70.6394520  75.4204022  48.2767949  67.2006609  62.6996899  41.2745852
  67.4170223  63.5821537  40.9734680  66.7200676  62.3083113  40.5451494
  70.5974532  76.1873288  42.7240699  70.7711410  75.6219710  41.9714551
  71.0903424  76.9874183  42.5420189  76.4513924  68.9509711  44.3430998
  76.8945070  68.2017036  43.9450122  75.5740434  68.9419847  43.9604730
  71.5849705  75.5040052  39.8237597  72.2800610  76.1246745  40.0424912
  71.9272855  74.6535404  40.0989975  73.4841128  72.9539758  41.3524928
  74.0092452  73.2927031  40.6274248  73.3963481  72.0186773  41.1688062
  65.1461177  76.8673832  53.4814804  65.4548303  76.6222978  54.3537504
  65.9436659  77.0720470  52.9933675  65.1681789  79.0211741  45.7120181
  64.7286779  78.5288120  46.4053038  65.9189906  78.4784709  45.4712256
  57.6474128  75.2123282  45.7144809  58.4732148  74.9127054  45.3343452
  57.2968180  74.4430904  46.1634598  62.6155661  74.5649750  47.7842483
  61.9935670  73.9020455  47.4844710  63.2860528  74.5910882  47.1016130
  55.8482733  73.1309608  46.6733743  55.0114641  72.7031783  46.4917744
  55.8206378  73.3242052  47.6104534  62.1769168  73.1153674  41.2600943
  62.3257288  73.7989138  40.6067616  62.9835611  73.0958764  41.7750399
  75.9946788  70.4214949  46.7353446  76.8293680  70.8604753  46.8991006
  76.1305917  69.9453602  45.9161692  73.0438294  67.9794684  52.6830934
  73.5192416  68.1722330  51.8749785  72.1203860  68.0353870  52.4374317
  59.9321801  69.1418851  42.2662012  59.6867843  68.2381181  42.4642222
  60.1017715  69.1436002  41.3241490  67.8731105  56.4342810  47.1687664
  68.1532859  55.7665999  47.7948091  68.6581712  56.6271906  46.6562328
  65.6764573  75.6101804  38.7312690  65.1038541  76.2291991  38.2783162
  66.2497367  76.1601166  39.2652612  71.7439963  64.8560444  50.9159239
  72.6957386  64.9558542  50.9371463  71.5743414  64.0638713  51.4257324
  68.8961833  75.8938954  39.8621273  69.8292506  75.8284516  40.0654148
  68.8085046  76.7295221  39.4035805  71.5249850  75.2104824  36.8225220
  71.4463481  74.8764688  37.7160978  72.3459517  75.7026592  36.8216693
  74.2228041  68.0766564  50.0301539  74.1904361  67.1382565  50.2161223
  74.8328665  68.1550601  49.2967364  66.0611372  66.9462617  36.0728743
  67.0070477  66.8168825  36.1417161  65.6825617  66.2077279  36.5498171
  74.3722530  64.8677607  50.0759822  73.8561578  64.0836064  49.8889751
  75.2562478  64.5396324  50.2406342  72.0333256  58.6118623  46.0355635
  71.8358078  58.3033711  46.9198967  72.6432962  59.3380262  46.1653565
  80.0404591  69.1382571  49.1707576  80.7707979  68.8767859  49.7315279
  79.4311536  68.4011293  49.2109644  78.1219888  67.2790433  49.7682027
  77.3953052  67.1446398  49.1598519  77.7067175  67.5867262  50.5738745
  65.9450064  70.9980363  57.5329400  66.8653074  71.1758962  57.7269446
  65.9099648  70.0536408  57.3809099  64.2454289  64.8712593  36.0083628
  63.3385744  64.5745706  36.0846342  64.5230270  64.5742411  35.1417914
  58.9412137  68.9081398  50.1752181  59.1598147  69.8398505  50.1940215
  59.3537911  68.5489372  50.9606985  55.0320489  69.8121868  48.4275796
  54.3383961  69.3975821  47.9145751  55.7793480  69.8542405  47.8309215
  71.1685710  60.6028055  43.2930830  70.5884379  61.2612859  42.9108883
  70.9021643  59.7805399  42.8818248  69.6189277  60.0033113  45.4952151
  70.1189055  60.1149647  44.6866470  70.2624884  59.6994165  46.1352959
  56.9457232  69.7440122  46.3041811  56.9227920  69.8427809  45.3523694
  57.2557868  70.5905273  46.6258977  59.6044610  71.8016277  50.4188425
  60.5587863  71.7700219  50.3518357  59.4057133  71.3406901  51.2338651
  60.1943992  70.3717393  52.9859223  61.0136881  70.8661472  53.0094060
  60.4680800  69.4549361  52.9576791  69.9510588  62.7628145  42.3487179
  69.0636443  63.0477796  42.1307373  70.3664577  62.6021909  41.5014456
  73.3025124  62.7874666  46.0641518  74.0785514  63.2771119  46.3366135
  72.5773259  63.2132720  46.5213387  75.7397683  63.5002285  47.1215459
  76.3342174  63.2598021  46.4108767  75.8124267  62.7809416  47.7488995
  57.9594839  77.3435896  47.4358623  57.8249307  76.5836297  46.8696621
  57.5426901  78.0676796  46.9687412  69.0953802  72.5272820  36.4435199
  69.7989652  72.7322822  37.0592854  68.3716450  73.0949582  36.7084282
  69.9251612  68.2782681  42.5637469  69.8686813  68.7351233  41.7245101
  70.4779954  67.5173366  42.3860312  73.7356418  64.0672413  43.3887588
  73.4793352  63.6669049  44.2195796  73.1109286  64.7816207  43.2637727
  78.0468756  66.8068486  45.8958880  77.4868314  66.8761676  46.6690442
  77.4412259  66.6309471  45.1758376  61.1163965  78.2405213  47.6477066
  60.9996349  79.1850646  47.5455756  60.2956411  77.9378775  48.0362865
  71.0040499  72.9655349  38.4933659  71.8386103  72.5336548  38.3111133
  70.8424842  72.7937363  39.4210553  70.6586391  69.4687462  39.8589998
  70.6035195  69.3031734  38.9178442  70.0332447  70.1763495  40.0152188
  67.9732298  71.7736374  59.1843561  68.8423458  71.9477027  58.8230196
  67.4939050  72.5930791  59.0619290  62.1418479  78.8933475  50.8632994
  63.0445725  78.9257086  51.1799489  61.9155849  77.9633926  50.8779330
  63.8972081  77.6464462  47.5243073  62.9467712  77.6466323  47.4107445
  64.2004567  76.8997196  47.0079108  79.6324774  83.4825000  48.5888835
  80.2703184  83.3631748  47.8852176  79.5145617  84.4305844  48.6476788
  76.4414480  83.4352428  48.5250360  76.1032992  83.3193493  47.6370895
  77.3104249  83.0343593  48.5051366  72.3001296  85.2887905  44.5147251
  71.7366161  85.1977842  43.7463539  72.1853691  84.4687809  44.9949744
  69.8465728  86.7839096  47.3531472  70.6387020  86.4429921  46.9377771
  70.0862378  86.8934071  48.2733625  77.8800855  88.9558872  39.8261716
  77.2288835  89.5412953  39.4395730  78.6745218  89.4865067  39.8856753
  71.8056482  86.0448010  40.2248850  72.5787358  85.4976997  40.0861726
  72.1581881  86.9092259  40.4363312  73.6441525  87.3724392  53.4315750
  73.3531391  88.2770023  53.3162416  74.2798509  87.4140919  54.1459819
  74.1422760  82.2040676  37.8567300  74.3948281  81.6822197  37.0950763
  73.2047319  82.0406821  37.9593984  79.1866043  81.2076454  45.6642043
  79.9729132  80.7895877  45.3132461  79.4504747  82.1122546  45.8323692
  79.3576120  86.6449304  40.3630700  78.7221953  86.7183931  41.0751605
  79.0273526  87.2342903  39.6849780  84.5874470  81.1451687  46.5675022
  85.3199642  80.5750904  46.8012851  83.8313825  80.7573288  47.0081528
  73.8619049  84.1068782  40.0591675  73.7455307  83.4313685  40.7272760
  73.9721308  83.6201156  39.2423828  76.2050590  83.5678929  43.7638364
  75.8408797  83.0409550  44.4751286  77.0617705  83.1777398  43.5904850
  75.8456076  78.5968828  38.7599713  76.0130479  79.4649065  39.1270184
  75.6553246  78.7596110  37.8361002  78.6031410  87.0585807  50.4265543
  78.3032133  87.9610846  50.3181351  78.2582469  86.7917991  51.2786696
  72.0543891  83.5099604  46.4602248  71.1294388  83.3775818  46.6679940
  72.3028304  84.2893823  46.9572190  75.8245297  81.0526486  39.7446380
  75.7044923  81.4983537  40.5831860  75.1297886  81.4011804  39.1859918
  69.4152702  83.1532878  47.2946037  69.5445083  83.4067357  48.2085449
  68.7350153  83.7460586  46.9750692  73.5852189  93.8230128  43.3936511
  73.5076219  94.7737953  43.4724992  72.9813833  93.4776000  44.0511437
  81.5230364  81.5247959  40.5726714  82.4348220  81.7575346  40.3974411
  81.0140011  82.1085003  40.0101792  79.8071131  85.9472587  54.2088006
  80.2154487  85.5054997  53.4642639  79.0848393  85.3725214  54.4622199
  80.1299946  86.5073778  47.9640295  79.5008808  86.6719492  47.2616363
  79.7425608  86.9215387  48.7351259  84.0089178  87.4428215  45.3184659
  83.3240216  87.8227117  44.7681692  84.0933027  88.0523542  46.0516607
  75.6827908  86.2448186  45.2290380  76.1466253  86.5235889  44.4395003
  75.4184706  85.3431630  45.0463471  72.5751989  85.7919667  48.1670144
  73.1453346  86.2206936  47.5287628  73.1660101  85.5102252  48.8654329
  74.6196794  82.3671338  42.0379946  75.3220837  82.8192382  42.5053872
  74.2877422  81.7255157  42.6659839  68.3622128  80.6254891  47.3397079
  67.5721182  80.8812419  46.8637190  68.8533375  81.4403229  47.4449120
  82.3785937  87.9660130  50.0902360  83.2003381  87.5640317  49.8085042
  82.3748340  87.8628364  51.0418476  70.3136873  80.9899470  44.2980556
  69.5168036  81.1018164  44.8164051  70.0862465  81.3286122  43.4321446
  66.6459831  80.8785381  49.7712070  66.8967869  81.7632391  50.0369646
  67.1819379  80.6989983  48.9987162  90.4691930  84.3098878  46.4387331
  89.7155639  83.7406276  46.2831336  90.6039472  84.2761543  47.3857966
  75.8590558  89.1812281  42.1142051  75.7236233  90.0263816  42.5426899
  76.4000371  89.3831558  41.3507985  69.3119956  86.6987719  42.6869976
  69.8244476  87.4930969  42.8375541  69.9642669  86.0014009  42.6203577
  71.1214840  89.8153475  44.7692729  71.2981469  90.7371440  44.5813713
  71.9171674  89.5011894  45.1987109  77.4859035  89.8035847  56.2442393
  77.0422889  89.0172226  55.9263297  78.1476248  89.9914998  55.5786284
  72.2446156  91.3331649  50.7703071  72.7953581  91.2048712  49.9980065
  71.4057632  91.6326538  50.4197964  76.0413327  87.5982777  55.1147302
  76.5741664  86.8371065  54.8846610  75.5127408  87.3056428  55.8571457
  79.2083022  72.7042843  50.6440944  78.8647291  73.5944484  50.5680055
  79.5761985  72.5144500  49.7810529  67.2768873  85.0276373  43.4629546
  68.1144095  85.4373381  43.2463254  67.4547140  84.0875815  43.4329740
  79.1733305  82.6951454  39.1513379  78.6579928  83.4656058  39.3901767
  78.9010613  82.0216590  39.7746441  76.7580416  77.5401154  44.2098618
  75.9022012  77.1508005  44.0304256  77.1707367  77.6193115  43.3498403
  78.2879562  75.0747498  48.6090177  77.7844358  75.0377633  47.7957983
  78.5810169  75.9840240  48.6686834  74.5322448  75.1586227  47.6156359
  75.3975445  74.9629036  47.2562249  74.5999957  74.9296579  48.5425716
  84.1467579  85.4483808  41.0866553  83.3697022  85.1094968  40.6421715
  84.8259060  85.4536431  40.4121518  78.9619608  80.5678546  40.9773161
  78.6569743  80.8824695  41.8283304  79.9150050  80.6459966  41.0200493
  77.4066040  86.7268769  42.6266114  76.8787401  85.9921529  42.3139352
  76.9053542  87.5043445  42.3806083  82.3858886  84.9217790  47.7433161
  81.7282560  85.6117051  47.8313289  83.1899285  85.3114221  48.0867147
  72.1384767  77.3888435  44.9872726  72.7128519  77.1663617  44.2545919
  72.7255750  77.4577130  45.7401327  81.1964345  83.2762162  45.7937103
  81.7096226  83.9092154  46.2958812  81.8465568  82.6763358  45.4280463
  72.4654354  79.4192896  39.0068611  71.6291667  79.7567583  39.3277886
  72.3259124  79.2841876  38.0695748  74.4407435  74.2629684  43.7147795
  73.7871847  73.9478701  43.0904410  74.3987909  73.6405425  44.4407618
  75.5518640  84.5448979  35.6301088  74.6445702  84.3138233  35.8292236
  76.0489672  83.7486599  35.8175069  78.4586719  93.2546487  38.5497774
  77.7848418  93.5578183  39.1582732  78.8452541  94.0575567  38.2003231
  77.6745175  80.7511618  48.0395443  76.7567737  80.9726565  47.8817131
  78.0905319  80.8257928  47.1807150  78.4580223  82.1503033  43.1698123
  79.2052042  82.6624431  42.8605245  78.7271813  81.8287086  44.0302517
  76.7306873  84.6461574  40.1525078  75.8218093  84.3620607  40.2497547
  76.7601957  85.0660653  39.2928384  81.9626141  88.2568164  43.9216245
  81.5088468  87.4159074  43.9781436  81.3320107  88.8929562  44.2591025
  80.9059060  79.1860150  45.1516913  80.1681817  78.6737536  45.4827155
  81.1585834  78.7460531  44.3400189  80.4059080  90.0944660  44.8566063
  80.6982054  90.6549717  44.1378429  80.9157701  90.3873221  45.6119222
  81.0070688  71.9636402  45.7458682  81.3129564  71.1033765  45.4584597
  81.7323292  72.5554022  45.5457676  67.2995044  82.3667088  44.1340280
  67.1019444  81.7736449  43.4091346  66.7441708  82.0619299  44.8516219
  75.2791767  82.2590195  46.2534873  75.3340377  81.3064031  46.1777350
  74.4682969  82.4149634  46.7376171  76.4282961  86.1870318  37.4913156
  75.9902391  85.4706177  37.0318794  77.1693402  86.4146433  36.9298248
  73.2184127  80.8767255  44.0125252  72.4051993  81.1761425  44.4190444
  73.7143121  80.4822943  44.7299734  75.3692705  90.8725011  45.9459517
  75.3268884  91.0985858  45.0168049  76.2855404  90.6388386  46.0945318
  84.5456076  84.4627515  43.5489475  84.4073974  84.6529111  42.6210664
  84.1892295  85.2246898  44.0057526  72.7098202  78.4485610  49.6286487
  73.3497581  78.3074369  48.9309450  71.8775733  78.1620123  49.2525089
  84.5725456  86.5304042  48.5600746  85.0061962  86.4379331  49.4083800
  85.2857036  86.5061542  47.9220762  73.4858506  87.7488040  45.7421479
  74.2799104  87.2538361  45.5404054  72.7750198  87.2205904  45.3789185
  78.3053350  90.1306136  50.0933847  78.3590373  90.6997072  50.8611563
  77.4368132  90.3008021  49.7287884  69.7941269  81.8931122  41.8181232
  68.8638857  81.8315578  42.0351194  69.8898741  81.3707075  41.0217873
  69.7126818  78.4185935  44.4059474  69.9733636  79.3331268  44.2968634
  70.5343991  77.9510378  44.5556086  71.1851744  79.8323692  51.5758298
  71.8574797  79.6241054  50.9270947  70.3581530  79.6345778  51.1363530
  85.4341005  86.5727743  51.0933632  85.6276895  87.4773553  51.3392907
  85.3341623  86.1135162  51.9272217  80.4956114  86.7234485  56.6674512
  80.3441620  86.4945037  55.7504596  80.4860793  87.6805087  56.6805857
  76.0629782  88.3217062  49.4219316  75.9240868  87.9535847  50.2945254
  75.2744378  88.8364702  49.2503274  76.6577934  93.4226159  40.7644853
  76.8329690  92.9514202  41.5790476  75.9710722  94.0491925  40.9926114
  77.6134997  87.6998665  46.8108154  77.2784830  87.6599435  47.7065804
  77.1138943  87.0343381  46.3378564  80.5494189  85.0454700  37.0845214
  79.9323359  84.3201528  36.9878266  80.0810677  85.8064060  36.7412288
  71.2239019  96.5715522  47.5384713  71.4635617  97.2034046  48.2163732
  70.3808216  96.2203562  47.8250072  72.3392735  79.2640124  36.2066518
  71.4622201  79.1428925  35.8428765  72.8150488  78.4726202  35.9545407
  82.2065728  87.7193192  52.9764974  81.3192506  87.3819114  53.0991373
  82.7764279  86.9876223  53.2133739  63.8594875  84.0517284  46.3008025
  64.5465915  83.7379014  45.7129041  63.7043003  84.9558648  46.0275277
  68.6629597  78.9407480  50.7293049  68.5787786  78.3333150  49.9943459
  67.8412303  79.4316498  50.7302545  75.7366881  92.3794644  49.9426217
  75.6637053  93.1849616  50.4545522  75.2944274  92.5786610  49.1174238
  75.5256661  91.6166414  43.4529039  74.7424183  92.1588094  43.5467263
  76.2249406  92.1340394  43.8523280  78.8353311  77.4261044  46.0963244
  79.3322010  76.6731006  45.7764314  78.0640292  77.4625360  45.5306453
  86.6883068  83.1301409  47.7381535  86.6772944  84.0126125  47.3675469
  85.8200448  82.7772960  47.5436073  78.1965565  92.2781478  52.0984376
  78.9093537  92.9128943  52.0260277  77.7055593  92.3745344  51.2824378
  79.9183091  86.1832731  43.6701667  78.9839370  86.3034193  43.5006372
  80.0959760  85.2805198  43.4061677  75.4188280  79.5678427  45.8234929
  75.0486067  79.0149467  46.5115834  75.9147372  78.9636560  45.2709929
  83.3055643  82.0250050  44.2051701  83.7716095  82.8578042  44.1312004
  83.7563143  81.5595032  44.9096960  73.2477478  90.0275922  52.9189947
  73.9486938  90.6612405  53.0719341  72.7772593  90.3690653  52.1585586
  81.3731874  88.3693871  41.2037854  81.6491718  88.2550466  42.1131728
  80.5036373  87.9711356  41.1650027  81.2772306  74.3930637  48.2442603
  80.3635385  74.6234864  48.4124810  81.7065407  74.4769081  49.0956635
  78.0085938  92.6180222  44.8470667  78.1908332  91.8001878  45.3098419
  78.8318924  92.8347915  44.4095557  78.3428103  91.5448407  42.1085716
  78.8715870  91.0340862  41.4955878  78.6056323  91.2290938  42.9731249
  68.8445196  89.5612277  49.8521049  69.4298633  88.8155965  49.9848953
  68.6470035  89.8716233  50.7357713  71.6983851  92.5963524  44.8683492
  71.0294227  93.0809652  44.3847532  71.5596721  92.8432745  45.7826870
  63.4362851  82.1317877  48.5725492  63.4746950  81.5981468  49.3662610
  62.9303144  81.6053082  47.9536470  75.8389120  94.6307268  51.4666150
  76.3907428  94.7938889  52.2315235  76.1795313  95.2211705  50.7946175
  70.8153613  76.9782417  52.0688035  70.8794940  77.8397248  51.6565432
  70.7520733  76.3656419  51.3360393  67.0671428  80.8581979  41.6479424
  67.3624870  79.9492657  41.5946477  66.1659464  80.8369718  41.3260426
  78.9757507  92.5789243  48.4529832  78.8508647  91.7778983  47.9440778
  79.6336598  93.0735436  47.9643802  70.5965675  78.9337976  47.6306972
  69.8752261  79.5473943  47.4914446  71.3858931  79.4695740  47.5523618
  81.0392416  90.3798263  50.0809382  80.0922751  90.2603614  50.0087709
  81.3875189  89.4920761  50.1635644  68.7959270  78.5396077  41.7718749
  68.4671976  77.6593456  41.5893855  69.1498641  78.4843745  42.6595138
  78.0438849  90.1750979  46.2813734  77.8963811  89.2467687  46.4621304
  78.8692342  90.1971070  45.7970810  71.9101093  78.8269047  42.1394227
  72.2497166  79.3554968  41.4172835  72.3573214  79.1649453  42.9152793
  81.6472971  90.9979538  47.3678607  82.5719518  90.7922399  47.2303058
  81.4788274  90.7495939  48.2767949  74.6044534  77.2106097  51.5897295
  74.2641354  76.4113910  51.9917974  73.8983540  77.5107808  51.0174128
  75.2561006  74.2955410  50.0424618  76.0787075  73.8215888  49.9203508
  75.4999069  75.0745893  50.5423304  73.8969240  77.3243668  40.3387519
  74.6177603  77.7024921  39.8351236  73.2734544  78.0432545  40.4422497
  78.0400363  78.0288817  41.2745852  78.2563978  78.9113455  40.9734680
  77.5594430  77.6375030  40.5451494  72.7799585  80.9874530  47.8516596
  72.6344165  81.3014833  48.7440878  72.3024788  81.6059431  47.2987495
  74.6395968  77.9777078  47.8997486  74.6257536  77.0818172  47.5629784
  75.3568396  77.9847742  48.5335772  76.4922098  78.4114418  49.9450613
  76.2339876  79.3331489  49.9434944  75.9607139  78.0144853  50.6351077
  81.4368287  91.5165206  42.7240699  81.6105165  90.9511628  41.9714551
  81.9297178  92.3166100  42.5420189  67.2545247  83.5279875  50.7904257
  66.7098715  84.3039683  50.9224532  68.1324597  83.8750679  50.6323379
  74.0432863  76.8591459  43.1685056  74.1648775  75.9308105  43.3675943
  73.7534906  76.8730145  42.2563371  76.9124054  74.5446369  46.3051776
  76.9345751  74.6085702  45.3503755  77.3292113  73.7050878  46.4992282
  87.2907678  84.2801629  44.3430998  87.7338824  83.5308954  43.9450122
  86.4134188  84.2711765  43.9604730  82.4243459  90.8331970  39.8237597
  83.1194364  91.4538663  40.0424912  82.7666610  89.9827321  40.0989975
  68.0411269  82.6549771  53.6834414  67.2993005  82.8032406  54.2699045
  67.7204013  82.9158037  52.8201164  84.3234883  88.2831676  41.3524928
  84.8486207  88.6218948  40.6274248  84.2357235  87.3478691  41.1688062
  75.9854931  92.1965749  53.4814804  76.2942058  91.9514896  54.3537504
  76.7830413  92.4012388  52.9933675  76.0075543  94.3503659  45.7120181
  75.5680534  93.8580038  46.4053038  76.7583660  93.8076626  45.4712256
  68.4867882  90.5415200  45.7144809  69.3125902  90.2418972  45.3343452
  68.1361934  89.7722822  46.1634598  73.4549415  89.8941668  47.7842483
  72.8329425  89.2312373  47.4844710  74.1254282  89.9202800  47.1016130
  66.6876487  88.4601526  46.6733743  65.8508396  88.0323700  46.4917744
  66.6600133  88.6533969  47.6104534  84.1326664  85.7657046  53.9708854
  84.1824669  85.6007053  54.9124377  84.0240587  84.8984305  53.5806735
  73.0162922  88.4445591  41.2600943  73.1651043  89.1281056  40.6067616
  73.8229366  88.4250681  41.7750399  86.8340543  85.7506867  46.7353446
  87.6687434  86.1896671  46.8991006  86.9699672  85.2745520  45.9161692
  70.7715555  84.4710769  42.2662012  70.5261597  83.5673099  42.4642222
  70.9411470  84.4727919  41.3241490  78.4612265  75.3434445  51.6486768
  78.9794209  76.0795472  51.3233256  78.1067398  75.6498439  52.4833527
  70.0411203  80.2039126  39.7648173  69.3480448  80.2783481  39.1088209
  69.7962955  79.4399470  40.2869690  78.7124859  71.7634728  47.1687664
  78.9926613  71.0957917  47.7948091  79.4975466  71.9563823  46.6562328
  76.5158328  90.9393722  38.7312690  75.9432295  91.5583909  38.2783162
  77.0891122  91.4893083  39.2652612  79.7355588  91.2230872  39.8621273
  80.6686261  91.1576434  40.0654148  79.6478801  92.0587139  39.4035805
  82.3643604  90.5396742  36.8225220  82.2857236  90.2056606  37.7160978
  83.1853271  91.0318510  36.8216693  76.9005126  82.2754534  36.0728743
  77.8464231  82.1460743  36.1417161  76.5219371  81.5369196  36.5498171
  85.2116284  80.1969525  50.0759822  84.6955333  79.4127982  49.8889751
  86.0956233  79.8688242  50.2406342  82.8727011  73.9410540  46.0355635
  82.6751832  73.6325629  46.9198967  83.4826717  74.6672179  46.1653565
  75.0848044  80.2004511  36.0083628  74.1779499  79.9037624  36.0846342
  75.3624025  79.9034329  35.1417914  66.0025984  81.5210874  46.4582675
  65.6828768  80.6676182  46.1657049  65.4559412  81.7359452  47.2140642
  69.7805892  84.2373315  50.1752181  69.9991901  85.1690423  50.1940215
  70.1931665  83.8781290  50.9606985  76.7010109  74.7441401  42.1627870
  75.8910838  74.3988486  42.5383116  77.3894526  74.4348944  42.7515481
  78.6300658  73.8219447  43.7852166  79.1831696  74.2414901  44.4442189
  78.8670744  72.8955195  43.8275122  73.8546828  77.0591446  36.1495607
  74.7165992  77.3846344  36.4091425  74.0397172  76.2722942  35.6368673
  65.8714244  85.1413786  48.4275796  65.1777715  84.7267739  47.9145751
  66.6187235  85.1834322  47.8309215  82.0079465  75.9319973  43.2930830
  81.4278134  76.5904777  42.9108883  81.7415397  75.1097317  42.8818248
  80.4583031  75.3325030  45.4952151  80.9582809  75.4441565  44.6866470
  81.1018639  75.0286083  46.1352959  67.7850986  85.0732040  46.3041811
  67.7621675  85.1719727  45.3523694  68.0951623  85.9197190  46.6258977
  70.4438364  87.1308195  50.4188425  71.3981618  87.0992137  50.3518357
  70.2450888  86.6698818  51.2338651  71.0337746  85.7009311  52.9859223
  71.8530635  86.1953389  53.0094060  71.3074554  84.7841279  52.9576791
  80.7904343  78.0920063  42.3487179  79.9030198  78.3769714  42.1307373
  81.2058332  77.9313826  41.5014456  84.1418879  78.1166584  46.0641518
  84.9179269  78.6063036  46.3366135  83.4167013  78.5424638  46.5213387
  86.5791437  78.8294203  47.1215459  87.1735928  78.5889939  46.4108767
  86.6518021  78.1101334  47.7488995  68.7988593  92.6727814  47.4358623
  68.6643061  91.9128215  46.8696621  68.3820655  93.3968714  46.9687412
  79.9347556  87.8564738  36.4435199  80.6383406  88.0614740  37.0592854
  79.2110205  88.4241499  36.7084282  80.7645366  83.6074599  42.5637469
  80.7080568  84.0643150  41.7245101  81.3173709  82.8465283  42.3860312
  84.5750172  79.3964331  43.3887588  84.3187107  78.9960966  44.2195796
  83.9503040  80.1108125  43.2637727  88.8862510  82.1360404  45.8958880
  88.3262068  82.2053593  46.6690442  88.2806014  81.9601389  45.1758376
  71.9557719  93.5697131  47.6477066  71.8390103  94.5142564  47.5455756
  71.1350165  93.2670693  48.0362865  81.8434254  88.2947267  38.4933659
  82.6779857  87.8628465  38.3111133  81.6818596  88.1229280  39.4210553
  81.4980146  84.7979380  39.8589998  81.4428950  84.6323652  38.9178442
  80.8726201  85.5055413  40.0152188  66.2872661  80.0347444  53.6851420
  66.9331524  79.5246398  54.1738645  66.0789812  80.7716126  54.2594845
  74.8076271  74.2987489  39.4375316  74.7954941  75.2429329  39.5943587
  75.6999693  74.1157634  39.1434778  72.9812233  94.2225393  50.8632994
  73.8839480  94.2549003  51.1799489  72.7549603  93.2925844  50.8779330
  74.7365835  92.9756379  47.5243073  73.7861466  92.9758241  47.4107445
  75.0398321  92.2289114  47.0079108  78.6228391  70.8930266  43.6921253
  77.8560786  70.3388752  43.8377936  79.0339096  70.9652134  44.5535405
  90.4718529  98.8116918  48.5888835  91.1096939  98.6923665  47.8852176
  90.3539372  99.7597762  48.6476788  87.2808235  98.7644346  48.5250360
  86.9426746  98.6485411  47.6370895  88.1498003  98.3635511  48.5051366
  83.1395051 100.6179822  44.5147251  82.5759916 100.5269759  43.7463539
  83.0247446  99.7979727  44.9949744  87.7628018  99.9179198  54.4836566
  87.7516659  99.5231996  53.6117069  87.9248657  99.1845270  55.0770337
  80.6859483 102.1131014  47.3531472  81.4780774 101.7721839  46.9377771
  80.9256133 102.2225989  48.2733625  88.7194609 104.2850790  39.8261716
  88.0682589 104.8704871  39.4395730  89.5138972 104.8156985  39.8856753
  82.6450237 101.3739927  40.2248850  83.4181113 100.8268914  40.0861726
  82.9975635 102.2384177  40.4363312  84.4835279 102.7016310  53.4315750
  84.1925145 103.6061940  53.3162416  85.1192263 102.7432837  54.1459819
  85.4091486 100.0793158  50.0217109  86.0055058  99.8549180  49.3074072
  85.4666457  99.3377904  50.6242557  84.9816514  97.5332593  37.8567300
  85.2342035  97.0114115  37.0950763  84.0441073  97.3698739  37.9593984
  90.0259797  96.5368372  45.6642043  90.8122886  96.1187795  45.3132461
  90.2898501  97.4414464  45.8323692  90.1969874 101.9741222  40.3630700
  89.5615707 102.0475849  41.0751605  89.8667281 102.5634821  39.6849780
  95.4268224  96.4743605  46.5675022  96.1593396  95.9042822  46.8012851
  94.6707580  96.0865205  47.0081528  84.7012803  99.4360699  40.0591675
  84.5849061  98.7605603  40.7272760  84.8115063  98.9493073  39.2423828
  87.0444344  98.8970846  43.7638364  86.6802551  98.3701467  44.4751286
  87.9011460  98.5069315  43.5904850  92.9493645  90.1865179  51.0269631
  92.6176969  91.0560590  50.8030846  92.3539258  89.8701463  51.7063661
  86.6849831  93.9260746  38.7599713  86.8524233  94.7940983  39.1270184
  86.4947000  94.0888028  37.8361002  89.4425164 102.3877725  50.4265543
  89.1425887 103.2902764  50.3181351  89.0976224 102.1209908  51.2786696
  82.8937646  98.8391522  46.4602248  81.9688142  98.7067736  46.6679940
  83.1422059  99.6185741  46.9572190  92.8422308  94.9060265  48.1062981
  91.9339185  94.8375674  47.8121742  92.7909904  95.3832210  48.9344806
  86.6639052  96.3818404  39.7446380  86.5438677  96.8275454  40.5831860
  85.9691640  96.7303721  39.1859918  80.2546457  98.4824795  47.2946037
  80.3838838  98.7359274  48.2085449  79.5743908  99.0752503  46.9750692
  84.4245944 109.1522045  43.3936511  84.3469974 110.1029870  43.4724992
  83.8207588 108.8067918  44.0511437  94.7083954  93.1076704  49.8840855
  94.0658335  93.4009237  49.2380649  94.2038883  92.9929624  50.6894051
  92.3624118  96.8539877  40.5726714  93.2741974  97.0867264  40.3974411
  91.8533765  97.4376921  40.0101792  85.1709546  99.1335364  55.6115845
  85.9124230  99.6720408  55.3350669  84.4646532  99.7601653  55.7687397
  90.6464886 101.2764505  54.2088006  91.0548242 100.8346915  53.4642639
  89.9242147 100.7017132  54.4622199  90.9693700 101.8365695  47.9640295
  90.3402563 102.0011409  47.2616363  90.5819362 102.2507305  48.7351259
  94.8482932 102.7720133  45.3184659  94.1633970 103.1519034  44.7681692
  94.9326782 103.3815460  46.0516607  92.1033864 100.4180092  51.9180003
  92.3150759 101.0611852  51.2414384  92.0563612  99.5842409  51.4501933
  89.7060093  93.0297913  48.8216575  88.8444572  93.3279166  49.1133312
  89.7322527  93.2468312  47.8897607  86.5221662 101.5740103  45.2290380
  86.9860008 101.8527806  44.4395003  86.2578460 100.6723548  45.0463471
  83.4145743 101.1211585  48.1670144  83.9847100 101.5498853  47.5287628
  84.0053855 100.8394170  48.8654329  85.4590548  97.6963256  42.0379946
  86.1614592  98.1484299  42.5053872  85.1271177  97.0547075  42.6659839
  79.2015882  95.9546808  47.3397079  78.4114936  96.2104337  46.8637190
  79.6927130  96.7695146  47.4449120  93.2179692 103.2952048  50.0902360
  94.0397135 102.8932235  49.8085042  93.2142095 103.1920282  51.0418476
  81.1530628  96.3191388  44.2980556  80.3561791  96.4310082  44.8164051
  80.9256220  96.6578040  43.4321446  86.9836295 102.8436091  52.2463070
  87.0480728 103.3056498  53.0821242  86.2747219 102.2133456  52.3745380
  77.4853585  96.2077299  49.7712070  77.7361624  97.0924309  50.0369646
  78.0213134  96.0281900  48.9987162 101.3085685  99.6390796  46.4387331
 100.5549393  99.0698194  46.2831336 101.4433226  99.6053461  47.3857966
  86.6984313 104.5104198  42.1142051  86.5629988 105.3555734  42.5426899
  87.2394125 104.7123476  41.3507985  80.1513710 102.0279636  42.6869976
  80.6638231 102.8222887  42.8375541  80.8036423 101.3305927  42.6203577
  81.9608595 105.1445393  44.7692729  82.1375223 106.0663357  44.5813713
  82.7565428 104.8303812  45.1987109  88.3252789 105.1327765  56.2442393
  87.8816643 104.3464143  55.9263297  88.9870003 105.3206915  55.5786284
  83.0839910 106.6623566  50.7703071  83.6347336 106.5340630  49.9980065
  82.2451386 106.9618455  50.4197964  90.4234027 105.4130565  54.2723794
  90.4052503 106.2339446  53.7804063  91.3453947 105.2884640  54.4973935
  86.8807081 102.9274694  55.1147302  87.4135418 102.1662982  54.8846610
  86.3521163 102.6348346  55.8571457  90.0476776  88.0334760  50.6440944
  89.7041046  88.9236402  50.5680055  90.4155739  87.8436418  49.7810529
  78.1162627 100.3568291  43.4629546  78.9537849 100.7665299  43.2463254
  78.2940895  99.4167733  43.4329740  90.0127059  98.0243371  39.1513379
  89.4973683  98.7947976  39.3901767  89.7404368  97.3508507  39.7746441
  87.5974170  92.8693072  44.2098618  86.7415767  92.4799922  44.0304256
  88.0101122  92.9485033  43.3498403  89.1273317  90.4039415  48.6090177
  88.6238112  90.3669551  47.7957983  89.4203924  91.3132158  48.6686834
  85.3716203  90.4878145  47.6156359  86.2369199  90.2920954  47.2562249
  85.4393712  90.2588497  48.5425716  94.9861333 100.7775726  41.0866553
  94.2090776 100.4386885  40.6421715  95.6652814 100.7828349  40.4121518
  89.8013362  95.8970463  40.9773161  89.4963498  96.2116613  41.8283304
  90.7543804  95.9751883  41.0200493  88.2459794 102.0560687  42.6266114
  87.7181156 101.3213446  42.3139352  87.7447297 102.8335363  42.3806083
  93.2252640 100.2509707  47.7433161  92.5676315 100.9408969  47.8313289
  94.0293039 100.6406139  48.0867147  82.9778522  92.7180353  44.9872726
  83.5522274  92.4955535  44.2545919  83.5649504  92.7869048  45.7401327
  92.0358099  98.6054080  45.7937103  92.5489981  99.2384072  46.2958812
  92.6859323  98.0055275  45.4280463  83.3048109  94.7484814  39.0068611
  82.4685421  95.0859501  39.3277886  83.1652879  94.6133794  38.0695748
  85.2801190  89.5921602  43.7147795  84.6265602  89.2770619  43.0904410
  85.2381664  88.9697342  44.4407618  86.3912394  99.8740897  35.6301088
  85.4839456  99.6430150  35.8292236  86.8883426  99.0778516  35.8175069
  89.2980473 108.5838404  38.5497774  88.6242172 108.8870101  39.1582732
  89.6846295 109.3867485  38.2003231  88.5138930  96.0803535  48.0395443
  87.5961491  96.3018482  47.8817131  88.9299073  96.1549846  47.1807150
  89.2973978  97.4794951  43.1698123  90.0445797  97.9916348  42.8605245
  89.5665567  97.1579004  44.0302517  87.5700628  99.9753492  40.1525078
  86.6611847  99.6912525  40.2497547  87.5995712 100.3952570  39.2928384
  92.8019895 103.5860081  43.9216245  92.3482222 102.7450991  43.9781436
  92.1713862 104.2221480  44.2591025  91.7452815  94.5152067  45.1516913
  91.0075572  94.0029454  45.4827155  91.9979588  94.0752449  44.3400189
  91.2452834 105.4236578  44.8566063  91.5375809 105.9841635  44.1378429
  91.7551455 105.7165139  45.6119222  91.8464442  87.2928319  45.7458682
  92.1523319  86.4325683  45.4584597  92.5717047  87.8845940  45.5457676
  78.1388798  97.6959006  44.1340280  77.9413198  97.1028367  43.4091346
  77.5835462  97.3911216  44.8516219  86.1185522  97.5882112  46.2534873
  86.1734132  96.6355949  46.1777350  85.3076724  97.7441552  46.7376171
  87.2676716 101.5162236  37.4913156  86.8296146 100.7998094  37.0318794
  88.0087156 101.7438350  36.9298248  84.0577882  96.2059172  44.0125252
  83.2445747  96.5053343  44.4190444  84.5536876  95.8114861  44.7299734
  86.2086460 106.2016929  45.9459517  86.1662638 106.4277775  45.0168049
  87.1249159 105.9680304  46.0945318  95.3849830  99.7919433  43.5489475
  95.2467729  99.9821029  42.6210664  95.0286049 100.5538815  44.0057526
  83.5491957  93.7777528  49.6286487  84.1891336  93.6366287  48.9309450
  82.7169487  93.4912041  49.2525089  95.4119210 101.8595960  48.5600746
  95.8455717 101.7671249  49.4083800  96.1250791 101.8353460  47.9220762
  84.3252260 103.0779958  45.7421479  85.1192859 102.5830278  45.5404054
  83.6143953 102.5497821  45.3789185  89.1447105 105.4598054  50.0933847
  89.1984127 106.0288990  50.8611563  88.2761886 105.6299939  49.7287884
  80.6335024  97.2223040  41.8181232  79.7032612  97.1607495  42.0351194
  80.7292496  96.6998993  41.0217873  80.5520573  93.7477853  44.4059474
  80.8127390  94.6623186  44.2968634  81.3737745  93.2802295  44.5556086
  82.0245498  95.1615610  51.5758298  82.6968552  94.9532972  50.9270947
  81.1975285  94.9637696  51.1363530  96.2734760 101.9019660  51.0933632
  96.4670650 102.8065471  51.3392907  96.1735378 101.4427079  51.9272217
  88.1035205  99.6258316  51.6520779  89.0327265  99.7769475  51.4789746
  87.6826235  99.7142337  50.7969425  86.9023536 103.6508980  49.4219316
  86.7634622 103.2827765  50.2945254  86.1138133 104.1656620  49.2503274
  87.4971688 108.7518077  40.7644853  87.6723444 108.2806120  41.5790476
  86.8104476 109.3783843  40.9926114  88.4528752 103.0290583  46.8108154
  88.1178584 102.9891353  47.7065804  87.9532697 102.3635299  46.3378564
  82.4272996  98.4358213  52.3360735  82.2892793  97.7038452  52.9372274
  83.3377919  98.3467113  52.0544923  91.3887943 100.3746617  37.0845214
  90.7717114  99.6493445  36.9878266  90.9204432 101.1355977  36.7412288
  85.0555296  98.1478172  51.8244415  85.7654915  97.5071364  51.7831033
  85.0124604  98.3991067  52.7470596  93.0442075 105.0845526  54.7450994
  92.9854621 104.4004746  54.0781577  93.4461593 105.8264516  54.2931620
  82.0632774 111.9007439  47.5384713  82.3029372 112.5325964  48.2163732
  81.2201970 111.5495479  47.8250072  83.1786489  94.5932041  36.2066518
  82.3015955  94.4720842  35.8428765  83.6544242  93.8018120  35.9545407
  93.0459482 103.0485109  52.9764974  92.1586261 102.7111031  53.0991373
  93.6158033 102.3168141  53.2133739  74.6988629  99.3809201  46.3008025
  75.3859669  99.0670931  45.7129041  74.5436758 100.2850566  46.0275277
  79.5023351  94.2699398  50.7293049  79.4181540  93.6625067  49.9943459
  78.6806058  94.7608416  50.7302545  86.5760636 107.7086562  49.9426217
  86.5030807 108.5141533  50.4545522  86.1338029 107.9078528  49.1174238
  86.3650415 106.9458332  43.4529039  85.5817937 107.4880012  43.5467263
  87.0643160 107.4632311  43.8523280  89.6747065  92.7552961  46.0963244
  90.1715765  92.0022924  45.7764314  88.9034047  92.7917278  45.5306453
  97.5276823  98.4593327  47.7381535  97.5166699  99.3418042  47.3675469
  96.6594202  98.1064878  47.5436073  89.0359319 107.6073396  52.0984376
  89.7487291 108.2420861  52.0260277  88.5449348 107.7037262  51.2824378
  90.7576846 101.5124649  43.6701667  89.8233125 101.6326111  43.5006372
  90.9353514 100.6097115  43.4061677  86.2582034  94.8970344  45.8234929
  85.8879822  94.3441385  46.5115834  86.7541126  94.2928478  45.2709929
  94.1449397  97.3541968  44.2051701  94.6109850  98.1869959  44.1312004
  94.5956898  96.8886949  44.9096960  84.0871233 105.3567839  52.9189947
  84.7880692 105.9904322  53.0719341  83.6166348 105.6982571  52.1585586
  92.2125628 103.6985789  41.2037854  92.4885472 103.5842384  42.1131728
  91.3430127 103.3003274  41.1650027  92.1166060  89.7222555  48.2442603
  91.2029140  89.9526782  48.4124810  92.5459162  89.8060999  49.0956635
  91.8872519  97.9112447  50.7442497  91.2343969  98.1588354  50.0894950
  92.2652898  97.0976585  50.4104974  88.8479692 107.9472140  44.8470667
  89.0302087 107.1293796  45.3098419  89.6712678 108.1639832  44.4095557
  89.1821858 106.8740325  42.1085716  89.7109624 106.3632780  41.4955878
  89.4450078 106.5582855  42.9731249  87.9360092  98.6532258  57.2308534
  87.2600729  98.5526387  57.9010909  88.7587725  98.4971472  57.6944531
  79.6838951 104.8904194  49.8521049  80.2692387 104.1447882  49.9848953
  79.4863789 105.2008151  50.7357713  82.5377606 107.9255442  44.8683492
  81.8687981 108.4101569  44.3847532  82.3990476 108.1724662  45.7826870
  74.2756605  97.4609795  48.5725492  74.3140705  96.9273385  49.3662610
  73.7696898  96.9345000  47.9536470  86.6782874 109.9599185  51.4666150
  87.2301182 110.1230807  52.2315235  87.0189068 110.5503623  50.7946175
  91.5293749 104.7860443  57.3214804  92.0733653 105.3990401  56.8269759
  90.9480594 105.3440021  57.8381817  77.9065183  96.1873897  41.6479424
  78.2018624  95.2784575  41.5946477  77.0053219  96.1661636  41.3260426
  89.8151262 107.9081161  48.4529832  89.6902401 107.1070901  47.9440778
  90.4730353 108.4027354  47.9643802  81.4359430  94.2629893  47.6306972
  80.7146016  94.8765861  47.4914446  82.2252686  94.7987658  47.5523618
  91.8786170 105.7090181  50.0809382  90.9316506 105.5895532  50.0087709
  92.2268943 104.8212679  50.1635644  79.6353025  93.8687994  41.7718749
  79.3065731  92.9885373  41.5893855  79.9892395  93.8135663  42.6595138
  88.8832603 105.5042897  46.2813734  88.7357566 104.5759605  46.4621304
  89.7086097 105.5262988  45.7970810  82.7494848  94.1560964  42.1394227
  83.0890920  94.6846885  41.4172835  83.1966968  94.4941370  42.9152793
  92.4866725 106.3271456  47.3678607  93.4113273 106.1214317  47.2303058
  92.3182029 106.0787857  48.2767949  85.4438289  92.5398015  51.5897295
  85.1035109  91.7405828  51.9917974  84.7377295  92.8399726  51.0174128
  86.0954760  89.6247327  50.0424618  86.9180830  89.1507806  49.9203508
  86.3392824  90.4037811  50.5423304  84.7362995  92.6535586  40.3387519
  85.4571357  93.0316839  39.8351236  84.1128299  93.3724463  40.4422497
  88.8794118  93.3580735  41.2745852  89.0957732  94.2405373  40.9734680
  88.3988185  92.9666948  40.5451494  83.6193339  96.3166448  47.8516596
  83.4737920  96.6306751  48.7440878  83.1418543  96.9351348  47.2987495
  85.4789722  93.3068996  47.8997486  85.4651291  92.4110089  47.5629784
  86.1962150  93.3139660  48.5335772  87.3315853  93.7406336  49.9450613
  87.0733631  94.6623407  49.9434944  86.8000893  93.3436771  50.6351077
  92.2762041 106.8457123  42.7240699  92.4498919 106.2803546  41.9714551
  92.7690933 107.6458018  42.5420189  78.0939001  98.8571792  50.7904257
  77.5492469  99.6331600  50.9224532  78.9718351  99.2042597  50.6323379
  84.8826618  92.1883376  43.1685056  85.0042529  91.2600022  43.3675943
  84.5928660  92.2022062  42.2563371  87.7517808  89.8738287  46.3051776
  87.7739505  89.9377620  45.3503755  88.1685867  89.0342795  46.4992282
  98.1301433  99.6093546  44.3430998  98.5732579  98.8600871  43.9450122
  97.2527943  99.6003683  43.9604730  93.2637214 106.1623888  39.8237597
  93.9588119 106.7830580  40.0424912  93.6060364 105.3119239  40.0989975
  78.8805023  97.9841689  53.6834414  78.1386759  98.1324324  54.2699045
  78.5597767  98.2449954  52.8201164  95.1628637 103.6123593  41.3524928
  95.6879961 103.9510866  40.6274248  95.0750990 102.6770609  41.1688062
  86.8248686 107.5257667  53.4814804  87.1335812 107.2806814  54.3537504
  87.6224168 107.7304305  52.9933675  86.8469298 109.6795576  45.7120181
  86.4074288 109.1871955  46.4053038  87.5977415 109.1368544  45.4712256
  79.3261637 105.8707117  45.7144809  80.1519657 105.5710889  45.3343452
  78.9755689 105.1014740  46.1634598  84.2943170 105.2233586  47.7842483
  83.6723179 104.5604291  47.4844710  84.9648037 105.2494717  47.1016130
  77.5270242 103.7893444  46.6733743  76.6902150 103.3615618  46.4917744
  77.4993887 103.9825887  47.6104534  94.8522543 104.2456497  56.6576126
  94.0618087 104.2280636  56.1180625  94.6155898 104.7844791  57.4125162
  94.9720418 101.0948963  53.9708854  95.0218423 100.9298971  54.9124377
  94.8634342 100.2276222  53.5806735  83.8556677 103.7737509  41.2600943
  84.0044797 104.4572973  40.6067616  84.6623120 103.7542599  41.7750399
  92.2624181  97.0779891  55.2868161  93.1634043  96.9386356  54.9952159
  92.3372155  97.2434346  56.2266338  96.4738615 103.5145905  54.2150876
  96.1823423 103.8775885  55.0514337  95.8610746 102.8012913  54.0364208
  97.6734297 101.0798785  46.7353446  98.5081189 101.5188589  46.8991006
  97.8093426 100.6037438  45.9161692  94.7225803  98.6378519  52.6830934
  95.1979925  98.8306166  51.8749785  93.7991369  98.6937705  52.4374317
  81.6109310  99.8002687  42.2662012  81.3655352  98.8965017  42.4642222
  81.7805224  99.8019837  41.3241490  80.8804957  95.5331044  39.7648173
  80.1874202  95.6075399  39.1088209  80.6356709  94.7691388  40.2869690
  89.5518614  87.0926645  47.1687664  89.8320368  86.4249835  47.7948091
  90.3369221  87.2855741  46.6562328  87.3552082 106.2685639  38.7312690
  86.7826050 106.8875827  38.2783162  87.9284876 106.8185001  39.2652612
  93.4227472  95.5144279  50.9159239  94.3744895  95.6142377  50.9371463
  93.2530923  94.7222548  51.4257324  91.4441852  92.5999863  51.1018640
  90.8491784  92.8804875  50.4065129  91.1591548  93.0893764  51.8735381
  90.5749342 106.5522790  39.8621273  91.5080015 106.4868351  40.0654148
  90.4872555 107.3879056  39.4035805  93.2037359 105.8688660  36.8225220
  93.1250990 105.5348523  37.7160978  94.0247026 106.3610428  36.8216693
  95.9015550  98.7350399  50.0301539  95.8691870  97.7966400  50.2161223
  96.5116174  98.8134436  49.2967364  87.7398881  97.6046452  36.0728743
  88.6857986  97.4752660  36.1417161  87.3613126  96.8661114  36.5498171
  96.0510039  95.5261443  50.0759822  95.5349087  94.7419899  49.8889751
  96.9349987  95.1980159  50.2406342  93.7120765  89.2702458  46.0355635
  93.5145587  88.9617546  46.9198967  94.3220471  89.9964097  46.1653565
 101.7192100  99.7966406  49.1707576 102.4495488  99.5351694  49.7315279
 101.1099045  99.0595128  49.2109644  99.8007397  97.9374269  49.7682027
  99.0740561  97.8030234  49.1598519  99.3854684  98.2451097  50.5738745
  87.6237573 101.6564198  57.5329400  88.5440583 101.8342797  57.7269446
  87.5887156 100.7120244  57.3809099  85.9241798  95.5296429  36.0083628
  85.0173253  95.2329541  36.0846342  86.2017779  95.2326247  35.1417914
  76.8419738  96.8502792  46.4582675  76.5222523  95.9968100  46.1657049
  76.2953167  97.0651370  47.2140642  80.6199646  99.5665233  50.1752181
  80.8385656 100.4982341  50.1940215  81.0325420  99.2073207  50.9606985
  87.5403864  90.0733318  42.1627870  86.7304592  89.7280403  42.5383116
  88.2288281  89.7640862  42.7515481  89.4694412  89.1511365  43.7852166
  90.0225451  89.5706818  44.4442189  89.7064498  88.2247113  43.8275122
  84.6940583  92.3883364  36.1495607  85.5559747  92.7138262  36.4091425
  84.8790927  91.6014860  35.6368673  76.7107998 100.4705703  48.4275796
  76.0171470 100.0559656  47.9145751  77.4580989 100.5126240  47.8309215
  92.8473219  91.2611890  43.2930830  92.2671888  91.9196694  42.9108883
  92.5809152  90.4389235  42.8818248  91.2976786  90.6616948  45.4952151
  91.7976564  90.7733482  44.6866470  91.9412393  90.3578001  46.1352959
  78.6244741 100.4023957  46.3041811  78.6015429 100.5011644  45.3523694
  78.9345377 101.2489108  46.6258977  81.2832119 102.4600112  50.4188425
  82.2375372 102.4284055  50.3518357  81.0844642 101.9990736  51.2338651
  81.8731501 101.0301228  52.9859223  82.6924390 101.5245307  53.0094060
  82.1468309 100.1133196  52.9576791  91.6298097  93.4211981  42.3487179
  90.7423952  93.7061631  42.1307373  92.0452086  93.2605744  41.5014456
  94.9812633  93.4458502  46.0641518  95.7573023  93.9354954  46.3366135
  94.2560767  93.8716556  46.5213387  97.4185192  94.1586121  47.1215459
  98.0129683  93.9181857  46.4108767  97.4911776  93.4393251  47.7488995
  79.6382348 108.0019732  47.4358623  79.5036816 107.2420133  46.8696621
  79.2214410 108.7260632  46.9687412  90.7741311 103.1856655  36.4435199
  91.4777161 103.3906658  37.0592854  90.0503959 103.7533417  36.7084282
  91.6039121  98.9366517  42.5637469  91.5474322  99.3935068  41.7245101
  92.1567463  98.1757201  42.3860312  95.4143927  94.7256248  43.3887588
  95.1580861  94.3252884  44.2195796  94.7896795  95.4400042  43.2637727
  99.7256265  97.4652322  45.8958880  99.1655823  97.5345511  46.6690442
  99.1199768  97.2893306  45.1758376  82.7951474 108.8989049  47.6477066
  82.6783858 109.8434481  47.5455756  81.9743920 108.5962610  48.0362865
  92.6828008 103.6239184  38.4933659  93.5173612 103.1920383  38.3111133
  92.5212351 103.4521198  39.4210553  92.3373900 100.1271298  39.8589998
  92.2822704  99.9615569  38.9178442  91.7119956 100.8347331  40.0152188
  77.1266415  95.3639362  53.6851420  77.7725279  94.8538316  54.1738645
  76.9183566  96.1008044  54.2594845  89.6519807 102.4320210  59.1843561
  90.5210967 102.6060862  58.8230196  89.1726559 103.2514626  59.0619290
  85.6470026  89.6279407  39.4375316  85.6348696  90.5721247  39.5943587
  86.5393448  89.4449552  39.1434778  83.8205988 109.5517311  50.8632994
  84.7233234 109.5840921  51.1799489  83.5943358 108.6217762  50.8779330
  85.5759590 108.3048297  47.5243073  84.6255221 108.3050159  47.4107445
  85.8792076 107.5581032  47.0079108  89.4622145  86.2222183  43.6921253
  88.6954541  85.6680670  43.8377936  89.8732850  86.2944052  44.5535405
 101.3112283 114.1408836  48.5888835 101.9490693 114.0215583  47.8852176
 101.1933126 115.0889680  48.6476788  98.1201989 114.0936264  48.5250360
  97.7820501 113.9777328  47.6370895  98.9891758 113.6927429  48.5051366
  93.9788805 115.9471740  44.5147251  93.4153670 115.8561677  43.7463539
  93.8641200 115.1271645  44.9949744  98.6021772 115.2471115  54.4836566
  98.5910413 114.8523914  53.6117069  98.7642412 114.5137188  55.0770337
  91.5253237 117.4422932  47.3531472  92.3174529 117.1013756  46.9377771
  91.7649887 117.5517907  48.2733625  93.4843991 116.7031845  40.2248850
  94.2574867 116.1560832  40.0861726  93.8369390 117.5676094  40.4363312
  95.3229034 118.0308227  53.4315750  95.0318900 118.9353858  53.3162416
  95.9586018 118.0724755  54.1459819  96.2485240 115.4085076  50.0217109
  96.8448813 115.1841098  49.3074072  96.3060212 114.6669821  50.6242557
  95.8210269 112.8624511  37.8567300  96.0735789 112.3406032  37.0950763
  94.8834828 112.6990656  37.9593984 100.8653552 111.8660289  45.6642043
 101.6516641 111.4479713  45.3132461 101.1292256 112.7706382  45.8323692
 106.2661979 111.8035523  46.5675022 106.9987151 111.2334739  46.8012851
 105.5101334 111.4157123  47.0081528  95.5406558 114.7652617  40.0591675
  95.4242816 114.0897520  40.7272760  95.6508817 114.2784991  39.2423828
  97.8838098 114.2262764  43.7638364  97.5196306 113.6993385  44.4751286
  98.7405214 113.8361233  43.5904850 103.7887399 105.5157097  51.0269631
 103.4570724 106.3852508  50.8030846 103.1933013 105.1993381  51.7063661
  97.5243585 109.2552664  38.7599713  97.6917988 110.1232900  39.1270184
  97.3340755 109.4179946  37.8361002  93.7331400 114.1683440  46.4602248
  92.8081897 114.0359654  46.6679940  93.9815813 114.9477659  46.9572190
 103.6816062 110.2352183  48.1062981 102.7732940 110.1667591  47.8121742
 103.6303658 110.7124128  48.9344806  97.5032806 111.7110321  39.7446380
  97.3832432 112.1567372  40.5831860  96.8085395 112.0595639  39.1859918
  91.0940211 113.8116713  47.2946037  91.2232592 114.0651192  48.2085449
  90.4137662 114.4044421  46.9750692  97.7556928 111.6541828  56.0497878
  96.9790262 112.2135749  56.0400743  98.3947491 112.1398611  56.5712748
 105.5477709 108.4368621  49.8840855 104.9052089 108.7301154  49.2380649
 105.0432637 108.3221542  50.6894051 103.2017873 112.1831794  40.5726714
 104.1135729 112.4159181  40.3974411 102.6927520 112.7668839  40.0101792
  96.0103301 114.4627282  55.6115845  96.7517985 115.0012326  55.3350669
  95.3040286 115.0893571  55.7687397  97.8389710 111.5429029  51.5821563
  98.6850905 111.9668443  51.7256212  97.7788348 110.8862653  52.2760126
 100.9889156 109.2033397  53.2402737 100.7450087 109.9575458  52.7037013
 101.2649086 109.5818745  54.0749984 100.5453847 108.3589830  48.8216575
  99.6838326 108.6571084  49.1133312 100.5716282 108.5760229  47.8897607
  97.3615417 116.9032021  45.2290380  97.8253762 117.1819724  44.4395003
  97.0972215 116.0015466  45.0463471  94.2539498 116.4503503  48.1670144
  94.8240855 116.8790771  47.5287628  94.8447610 116.1686087  48.8654329
  96.2984303 113.0255173  42.0379946  97.0008346 113.4776217  42.5053872
  95.9664931 112.3838992  42.6659839  94.7464664 111.6166930  56.4131155
  94.1163325 112.2983211  56.6466552  94.6400752 111.5050012  55.4684293
  90.0409637 111.2838726  47.3397079  89.2508691 111.5396255  46.8637190
  90.5320884 112.0987064  47.4449120  91.9924382 111.6483305  44.2980556
  91.1955545 111.7602000  44.8164051  91.7649974 111.9869958  43.4321446
  97.8230050 118.1728009  52.2463070  97.8874482 118.6348416  53.0821242
  97.1140974 117.5425373  52.3745380  88.3247340 111.5369216  49.7712070
  88.5755378 112.4216226  50.0369646  88.8606888 111.3573818  48.9987162
  94.0245407 105.9187696  58.7756406  93.6312353 105.3653894  59.4504050
  94.8411547 106.2298274  59.1662924  90.9907465 117.3571554  42.6869976
  91.5031985 118.1514804  42.8375541  91.6430178 116.6597844  42.6203577
  92.8002349 120.4737310  44.7692729  92.9768978 121.3955275  44.5813713
  93.5959183 120.1595730  45.1987109  96.9413368 107.3345575  56.3676663
  97.6823081 107.9352728  56.2881125  97.1731291 106.5923213  55.8094705
  92.0854706 112.5201942  54.6454892  91.9708221 111.6187199  54.9461991
  91.2299224 112.7665639  54.2939709  97.7200836 118.2566612  55.1147302
  98.2529173 117.4954900  54.8846610  97.1914917 117.9640264  55.8571457
 100.8870531 103.3626678  50.6440944 100.5434800 104.2528320  50.5680055
 101.2549494 103.1728336  49.7810529  88.9556382 115.6860208  43.4629546
  89.7931604 116.0957217  43.2463254  89.1334649 114.7459651  43.4329740
 100.8520814 113.3535289  39.1513379 100.3367437 114.1239894  39.3901767
 100.5798122 112.6800425  39.7746441  98.4367925 108.1984990  44.2098618
  97.5809521 107.8091840  44.0304256  98.8494876 108.2776951  43.3498403
  99.9667071 105.7331333  48.6090177  99.4631867 105.6961468  47.7957983
 100.2597678 106.6424076  48.6686834  96.2109957 105.8170063  47.6156359
  97.0762954 105.6212871  47.2562249  96.2787466 105.5880415  48.5425716
 100.6407117 111.2262381  40.9773161 100.3357252 111.5408530  41.8283304
 101.5937559 111.3043801  41.0200493  99.0853549 117.3852604  42.6266114
  98.5574910 116.6505364  42.3139352  98.5841051 118.1627281  42.3806083
  93.8172276 108.0472271  44.9872726  94.3916028 107.8247452  44.2545919
  94.4043259 108.1160965  45.7401327 102.8751853 113.9345998  45.7937103
 103.3883735 114.5675989  46.2958812 103.5253077 113.3347193  45.4280463
  94.1441863 110.0776732  39.0068611  93.3079176 110.4151418  39.3277886
  94.0046633 109.9425712  38.0695748  96.1194944 104.9213520  43.7147795
  95.4659356 104.6062537  43.0904410  96.0775418 104.2989260  44.4407618
  97.2306149 115.2032815  35.6301088  96.3233211 114.9722068  35.8292236
  97.7277181 114.4070434  35.8175069  99.3532684 111.4095453  48.0395443
  98.4355246 111.6310400  47.8817131  99.7692828 111.4841764  47.1807150
 100.1367732 112.8086869  43.1698123 100.8839551 113.3208266  42.8605245
 100.4059322 112.4870922  44.0302517  98.4094382 115.3045410  40.1525078
  97.5005602 115.0204442  40.2497547  98.4389466 115.7244488  39.2928384
 102.5846569 109.8443985  45.1516913 101.8469326 109.3321371  45.4827155
 102.8373343 109.4044367  44.3400189 102.6858197 102.6220237  45.7458682
 102.9917073 101.7617601  45.4584597 103.4110801 103.2137857  45.5457676
  88.9782553 113.0250924  44.1340280  88.7806952 112.4320284  43.4091346
  88.4229217 112.7203134  44.8516219  96.9579276 112.9174030  46.2534873
  97.0127886 111.9647867  46.1777350  96.1470478 113.0733469  46.7376171
  98.1070470 116.8454153  37.4913156  97.6689900 116.1290012  37.0318794
  98.8480911 117.0730268  36.9298248  94.8971636 111.5351090  44.0125252
  94.0839502 111.8345260  44.4190444  95.3930630 111.1406779  44.7299734
 100.4945848 111.9992914  52.8440146 100.8495236 112.2264387  53.7034611
 101.1417979 112.3311291  52.2217401  94.3885711 109.1069445  49.6286487
  95.0285090 108.9658205  48.9309450  93.5563242 108.8203959  49.2525089
  95.1646015 118.4071876  45.7421479  95.9586613 117.9122196  45.5404054
  94.4537707 117.8789739  45.3789185  91.4728778 112.5514958  41.8181232
  90.5426366 112.4899413  42.0351194  91.5686250 112.0290910  41.0217873
  91.3914327 109.0769770  44.4059474  91.6521145 109.9915104  44.2968634
  92.2131500 108.6094213  44.5556086  92.8639253 110.4907528  51.5758298
  93.5362306 110.2824890  50.9270947  92.0369039 110.2929614  51.1363530
  98.7664825 107.1169468  53.5923959  98.1192740 107.8159418  53.4988435
  99.5365840 107.5505612  53.9600207  98.9428959 114.9550233  51.6520779
  99.8721019 115.1061393  51.4789746  98.5219989 115.0434254  50.7969425
  97.7417291 118.9800898  49.4219316  97.6028377 118.6119682  50.2945254
  96.9531887 119.4948537  49.2503274  93.2666750 113.7650131  52.3360735
  93.1286548 113.0330369  52.9372274  94.1771673 113.6759031  52.0544923
  95.8949051 113.4770090  51.8244415  96.6048669 112.8363282  51.7831033
  95.8518359 113.7282985  52.7470596  94.6077985 110.4635308  53.6440054
  94.0715342 110.0126046  54.2961651  94.0194693 110.5981217  52.9010519
  94.0180244 109.9223959  36.2066518  93.1409710 109.8012760  35.8428765
  94.4937997 109.1310037  35.9545407  85.5382384 114.7101119  46.3008025
  86.2253424 114.3962849  45.7129041  85.3830512 115.6142484  46.0275277
  90.3417106 109.5991315  50.7293049  90.2575295 108.9916985  49.9943459
  89.5199812 110.0900334  50.7302545 100.5140820 108.0844879  46.0963244
 101.0109519 107.3314841  45.7764314  99.7427801 108.1209196  45.5306453
  97.0975789 110.2262262  45.8234929  96.7273576 109.6733302  46.5115834
  97.5934881 109.6220395  45.2709929 104.9843152 112.6833885  44.2051701
 105.4503604 113.5161877  44.1312004 105.4350652 112.2178867  44.9096960
 102.9559815 105.0514472  48.2442603 102.0422894 105.2818699  48.4124810
 103.3852916 105.1352917  49.0956635 102.7266273 113.2404364  50.7442497
 102.0737723 113.4880272  50.0894950 103.1046653 112.4268503  50.4104974
  98.7753846 113.9824175  57.2308534  98.0994483 113.8818305  57.9010909
  99.5981480 113.8263389  57.6944531  90.5232705 120.2196112  49.8521049
  91.1086142 119.4739800  49.9848953  90.3257544 120.5300069  50.7357713
  85.1150360 112.7901712  48.5725492  85.1534459 112.2565303  49.3662610
  84.6090653 112.2636918  47.9536470  92.4941122 107.6366253  52.0688035
  92.5582449 108.4981084  51.6565432  92.4308242 107.0240254  51.3360393
  91.9693395 109.7089385  55.7161069  92.5965434 109.3266463  56.3298593
  91.1121314 109.4903587  56.0816761  88.7458937 111.5165814  41.6479424
  89.0412379 110.6076493  41.5946477  87.8446973 111.4953554  41.3260426
  92.2753184 109.5921811  47.6306972  91.5539770 110.2057779  47.4914446
  93.0646440 110.1279576  47.5523618  95.0779498 106.9276237  53.9047624
  95.6013900 107.1738534  54.6673933  94.8591831 107.7596272  53.4850761
  90.4746779 109.1979912  41.7718749  90.1459485 108.3177291  41.5893855
  90.8286150 109.1427581  42.6595138  93.5888602 109.4852882  42.1394227
  93.9284675 110.0138803  41.4172835  94.0360723 109.8233288  42.9152793
  96.2832043 107.8689933  51.5897295  95.9428863 107.0697746  51.9917974
  95.5771049 108.1691643  51.0174128  96.9348515 104.9539245  50.0424618
  97.7574584 104.4799723  49.9203508  97.1786578 105.7329729  50.5423304
  95.5756749 107.9827503  40.3387519  96.2965112 108.3608756  39.8351236
  94.9522053 108.7016380  40.4422497  99.7187872 108.6872652  41.2745852
  99.9351487 109.5697290  40.9734680  99.2381939 108.2958866  40.5451494
  94.4587094 111.6458366  47.8516596  94.3131674 111.9598669  48.7440878
  93.9812297 112.2643266  47.2987495  96.3183476 108.6360914  47.8997486
  96.3045045 107.7402007  47.5629784  97.0355905 108.6431577  48.5335772
  98.1709607 109.0698254  49.9450613  97.9127385 109.9915324  49.9434944
  97.6394648 108.6728688  50.6351077  88.9332756 114.1863710  50.7904257
  88.3886224 114.9623518  50.9224532  89.8112106 114.5334515  50.6323379
  95.7220372 107.5175294  43.1685056  95.8436284 106.5891940  43.3675943
  95.4322415 107.5313980  42.2563371  98.5911563 105.2030204  46.3051776
  98.6133260 105.2669537  45.3503755  99.0079622 104.3634713  46.4992282
  89.7198778 113.3133606  53.6834414  88.9780514 113.4616242  54.2699045
  89.3991522 113.5741872  52.8201164  90.1655391 121.1999035  45.7144809
  90.9913411 120.9002807  45.3343452  89.8149443 120.4306657  46.1634598
  95.1336924 120.5525503  47.7842483  94.5116934 119.8896208  47.4844710
  95.8041791 120.5786635  47.1016130  88.3663996 119.1185361  46.6733743
  87.5295905 118.6907536  46.4917744  88.3387642 119.3117805  47.6104534
  95.2061452 109.0307291  57.3774989  95.2549607 109.9069414  56.9952758
  95.7483966 108.4884684  56.8046632  94.6950431 119.1029427  41.2600943
  94.8438552 119.7864891  40.6067616  95.5016875 119.0834517  41.7750399
 103.1017935 112.4071809  55.2868161 104.0027798 112.2678274  54.9952159
 103.1765910 112.5726264  56.2266338  97.4360740 109.7838664  54.1321347
  96.5664050 110.0772230  53.8603936  97.6720221 110.3679109  54.8528611
  92.4503064 115.1294604  42.2662012  92.2049106 114.2256934  42.4642222
  92.6198979 115.1311755  41.3241490 100.1399774 106.0018281  51.6486768
 100.6581718 106.7379308  51.3233256  99.7854907 106.3082274  52.4833527
  91.7198712 110.8622962  39.7648173  91.0267957 110.9367317  39.1088209
  91.4750464 110.0983305  40.2869690 100.3912368 102.4218563  47.1687664
 100.6714122 101.7541752  47.7948091 101.1762975 102.6147659  46.6562328
 104.2621227 110.8436197  50.9159239 105.2138650 110.9434295  50.9371463
 104.0924677 110.0514466  51.4257324 102.2835606 107.9291780  51.1018640
 101.6885538 108.2096793  50.4065129 101.9985303 108.4185681  51.8735381
  98.5792635 112.9338370  36.0728743  99.5251740 112.8044578  36.1417161
  98.2006880 112.1953032  36.5498171 106.8903793 110.8553360  50.0759822
 106.3742842 110.0711817  49.8889751 107.7743742 110.5272077  50.2406342
 104.5514520 104.5994376  46.0355635 104.3539341 104.2909464  46.9198967
 105.1614226 105.3256015  46.1653565  98.4631328 116.9856116  57.5329400
  99.3834337 117.1634715  57.7269446  98.4280911 116.0412161  57.3809099
  96.7635553 110.8588346  36.0083628  95.8567008 110.5621459  36.0846342
  97.0411534 110.5618164  35.1417914  87.6813493 112.1794710  46.4582675
  87.3616277 111.3260018  46.1657049  87.1346921 112.3943288  47.2140642
  91.4593400 114.8957151  50.1752181  91.6779410 115.8274258  50.1940215
  91.8719174 114.5365125  50.9606985  98.3797618 105.4025236  42.1627870
  97.5698347 105.0572321  42.5383116  99.0682035 105.0932780  42.7515481
 100.3088167 104.4803283  43.7852166 100.8619205 104.8998736  44.4442189
 100.5458253 103.5539031  43.8275122  96.3321266 110.4690356  59.5654930
  96.2317993 111.4184713  59.4967021  96.1142808 110.1408595  58.6931000
  95.5334337 107.7175281  36.1495607  96.3953501 108.0430180  36.4091425
  95.7184681 106.9306777  35.6368673  87.5501753 115.7997621  48.4275796
  86.8565224 115.3851574  47.9145751  88.2974744 115.8418158  47.8309215
 103.6866974 106.5903808  43.2930830 103.1065643 107.2488612  42.9108883
 103.4202906 105.7681152  42.8818248 102.1370540 105.9908866  45.4952151
 102.6370318 106.1025400  44.6866470 102.7806148 105.6869918  46.1352959
  96.1952536 113.8987495  58.3819992  95.7119618 114.6987855  58.5883881
  96.2813475 113.9095440  57.4287436  89.4638495 115.7315875  46.3041811
  89.4409184 115.8303562  45.3523694  89.7739132 116.5781026  46.6258977
  92.1225873 117.7892030  50.4188425  93.0769127 117.7575972  50.3518357
  91.9238397 117.3282654  51.2338651  92.7125255 116.3593146  52.9859223
  93.5318144 116.8537225  53.0094060  92.9862063 115.4425114  52.9576791
 102.4691852 108.7503898  42.3487179 101.5817707 109.0353549  42.1307373
 102.8845841 108.5897662  41.5014456 105.8206388 108.7750419  46.0641518
 106.5966778 109.2646872  46.3366135 105.0954522 109.2008473  46.5213387
 108.2578946 109.4878038  47.1215459 108.8523437 109.2473774  46.4108767
 108.3305530 108.7685169  47.7488995  90.4776102 123.3311649  47.4358623
  90.3430570 122.5712050  46.8696621  90.0608164 124.0552549  46.9687412
 102.4432875 114.2658434  42.5637469 102.3868077 114.7226986  41.7245101
 102.9961218 113.5049119  42.3860312 106.2537681 110.0548166  43.3887588
 105.9974616 109.6544802  44.2195796 105.6290549 110.7691960  43.2637727
  87.9660170 110.6931280  53.6851420  88.6119033 110.1830234  54.1738645
  87.7577321 111.4299961  54.2594845  96.4863780 104.9571324  39.4375316
  96.4742450 105.9013164  39.5943587  97.3787202 104.7741470  39.1434778
 100.3015900 101.5514101  43.6921253  99.5348295 100.9972588  43.8377936
 100.7126605 101.6235970  44.5535405  92.3057661 107.8398897  57.7826434
  93.1689122 107.4835702  57.9929759  91.7323071 107.5012792  58.4701839
  36.2749757  -0.8280548  35.3134142  36.9128167  -0.9473801  34.6097482
  36.1570600   0.1200296  35.3722094  33.0839464  -0.8753120  35.2495667
  32.7457975  -0.9912055  34.3616202  33.9529232  -1.2761955  35.2296673
  33.5659247   0.2781732  41.2081872  33.5547888  -0.1165470  40.3362376
  33.7279886  -0.4552195  41.8015644  30.2866508   3.0618844  40.1561056
  29.9956374   3.9664475  40.0407723  30.9223492   3.1035371  40.8705126
  31.2122715   0.4395692  36.7462416  31.8086287   0.2151715  36.0319379
  31.2697686  -0.3019562  37.3487864  41.2299453  -3.1653861  33.2920329
  41.9624625  -3.7354644  33.5258158  40.4738809  -3.5532260  33.7326834
  35.2456393   2.7480259  37.1510850  34.9457116   3.6505298  37.0426657
  34.9007452   2.4812442  38.0032003  38.6453537  -4.7337201  34.8308287
  37.7370414  -4.8021792  34.5367048  38.5941133  -4.2565256  35.6590113
  30.2277173   9.5124580  30.1181818  30.1501202  10.4632405  30.1970298
  29.6238816   9.1670452  30.7756744  32.7194403  -3.3147555  42.7743185
  31.9427737  -2.7553635  42.7646049  33.3584966  -2.8290772  43.2958055
  40.5115183  -6.5320762  36.6086161  39.8689563  -6.2388229  35.9625956
  40.0070112  -6.6467842  37.4139358  30.9740775  -0.5062102  42.3361152
  31.7155459   0.0322942  42.0595975  30.2677760   0.1204187  42.4932703
  36.4496114   1.6367039  40.9333313  36.8579471   1.1949449  40.1887945
  35.7273376   1.0619666  41.1867506  32.8027185  -3.4260354  38.3066870
  33.6488380  -3.0020941  38.4501519  32.7425822  -4.0826730  39.0005433
  36.7724929   2.1968229  34.6885602  36.1433792   2.3613944  33.9861670
  36.3850591   2.6109839  35.4596566  40.6514161   3.1322667  32.0429966
  39.9665199   3.5121569  31.4926999  40.7358010   3.7417994  32.7761913
  35.9526630  -5.7655986  39.9648044  35.7087562  -5.0113925  39.4282319
  36.2286560  -5.3870638  40.7995291  37.9065093   0.7782626  38.6425309
  38.1181988   1.4214386  37.9659690  37.8594841  -0.0555057  38.1747239
  29.2176972   1.4814119  34.8915450  29.7878329   1.9101387  34.2532935
  29.8085084   1.1996704  35.5899636  39.0210921   3.6554582  36.8147667
  39.8428364   3.2534769  36.5330348  39.0173323   3.5522816  37.7663782
  32.7867524   3.2038625  38.9708377  32.8511957   3.6659032  39.8066549
  32.0778448   2.5735990  39.0990687  47.1116914  -0.0006670  33.1632638
  46.3580622  -0.5699272  33.0076642  47.2464455  -0.0344005  34.1103273
  34.1284018   5.4930299  42.9687699  33.6847872   4.7066678  42.6508604
  34.7901232   5.6809450  42.3031590  28.8871139   7.0226101  37.4948378
  29.4378564   6.8943164  36.7225372  28.0482615   7.3220990  37.1443271
  36.2265256   5.7733099  40.9969101  36.2083731   6.5941980  40.5049370
  37.1485176   5.6487174  41.2219242  32.6838310   3.2877228  41.8392609
  33.2166647   2.5265517  41.6091917  32.1552391   2.9950880  42.5816764
  39.0283869   0.6112241  34.4678467  38.3707543   1.3011503  34.5558596
  39.8324268   1.0008673  34.8112454  37.8389328  -1.0343386  32.5182409
  38.3521210  -0.4013394  33.0204119  38.4890552  -1.6342190  32.1525769
  38.6051124   3.9462616  30.6461552  38.1513451   3.1053525  30.7026742
  37.9745091   4.5824014  30.9836332  37.0484063   5.7839112  31.5811370
  37.3407038   6.3444169  30.8623736  37.5582684   6.0767673  32.3364529
  32.0117688   6.5619463  32.6704823  31.9693867   6.7880310  31.7413355
  32.9280387   6.3282838  32.8190624  35.4583322  -2.9696469  39.5685452
  35.8132710  -2.7424996  40.4279918  36.1055453  -2.6378092  38.9462708
  41.2150439   2.2198494  35.2846053  41.6486945   2.1273783  36.1329107
  41.9282019   2.1955994  34.6466069  34.9478334   5.8200588  36.8179153
  35.0015356   6.3891524  37.5856869  34.0793115   5.9902473  36.4533191
  42.0765988   2.2622194  37.8178938  42.2701878   3.1668005  38.0638213
  41.9766607   1.8029614  38.6517523  37.1381097   2.4128937  43.3919819
  36.9866603   2.1839489  42.4749903  37.1285777   3.3699539  43.4051164
  33.9066433  -0.0139150  38.3766085  34.8358493   0.1372010  38.2035053
  33.4857463   0.0744871  37.5214732  32.7054765   4.0111514  36.1464623
  32.5665851   3.6430299  37.0190561  31.9169361   4.5259154  35.9748581
  34.2559980   3.3893117  33.5353461  33.9209813   3.3493887  34.4311111
  33.7563926   2.7237833  33.0623871  30.8586525  -1.4919294  38.5489722
  31.5686144  -2.1326101  38.5076340  30.8155833  -1.2406399  39.4715902
  38.8473304   5.4448060  41.4696301  38.7885850   4.7607280  40.8026884
  39.2492822   6.1867050  41.0176927  27.8664002  12.2609974  34.2630020
  28.1060601  12.8928498  34.9409038  27.0233199  11.9098014  34.5495379
  38.8490711   3.4087644  39.7010280  37.9617490   3.0713565  39.8236679
  39.4189262   2.6770675  39.9379046  32.3791864   8.0689096  36.6671524
  32.3062036   8.8744068  37.1790828  31.9369257   8.2681062  35.8419545
  32.1681644   7.3060866  30.1774345  31.3849166   7.8482546  30.2712570
  32.8674389   7.8234846  30.5768586  43.3308051  -1.1804139  34.4626842
  43.3197928  -0.2979424  34.0920775  42.4625431  -1.5332588  34.2681379
  34.8390548   7.9675930  38.8229682  35.5518520   8.6023395  38.7505584
  34.3480577   8.0639796  38.0069684  29.8902461   5.7170374  39.6435253
  30.5911921   6.3506856  39.7964647  29.4197576   6.0585105  38.8830892
  37.6903747  -1.7285019  37.4687803  37.0375198  -1.4809112  36.8140256
  38.0684127  -2.5420881  37.1350281  34.6510921   8.3074674  31.5715974
  34.8333316   7.4896330  32.0343726  35.4743907   8.5242366  31.1340864
  34.9853087   7.2342859  28.8331022  35.5140853   6.7235314  28.2201184
  35.2481306   6.9185390  29.6976555  33.7391320  -0.9865208  43.9553841
  33.0631957  -1.0871079  44.6256216  34.5618954  -1.1425994  44.4189838
  25.4870179   5.2506729  36.5766356  26.0723616   4.5050416  36.7094260
  25.2895018   5.5610685  37.4603020  28.3408835   8.2857976  31.5928798
  27.6719210   8.7704104  31.1092838  28.2021704   8.5327196  32.5072177
  32.4814103  10.3201719  38.1911457  33.0332411  10.4833341  38.9560542
  32.8220297  10.9106157  37.5191481  37.3324978   5.1462977  44.0460111
  37.8764882   5.7592935  43.5515066  36.7511822   5.7042555  44.5627124
  35.6182491   8.2683695  35.1775139  35.4933630   7.4673435  34.6686084
  36.2761582   8.7629888  34.6889109  37.6817399   6.0692715  36.8054689
  36.7347734   5.9498066  36.7333016  38.0300172   5.1815213  36.8880950
  34.6863832   5.8645431  33.0059041  34.5388795   4.9362139  33.1866611
  35.5117326   5.8865522  32.5216116  38.2897954   6.6873990  34.0923914
  39.2144502   6.4816851  33.9548365  38.1213257   6.4390391  35.0013255
  38.0793270   7.2059657  29.4486005  38.2530148   6.6406080  28.6959858
  38.5722162   8.0060552  29.2665495  43.9332661  -0.0303920  31.0676305
  44.3763807  -0.7796594  30.6695428  43.0559172  -0.0393783  30.6850037
  32.6279915   7.8860201  40.2060111  32.9367041   7.6409348  41.0782811
  33.4255397   8.0906840  39.7178981  32.6500527  10.0398111  32.4365487
  32.2105517   9.5474489  33.1298344  33.4008644   9.4971078  32.1957563
  30.0974399   5.5836120  34.5087789  29.4754408   4.9206825  34.2090017
  30.7679266   5.6097252  33.8261437  40.6553772   4.6059031  43.3821432
  39.8649316   4.5883170  42.8425932  40.4187127   5.1447325  44.1370469
  40.7751647   1.4551497  40.6954161  40.8249652   1.2901505  41.6369684
  40.6665570   0.5878756  40.3052042  38.0655409  -2.5617575  42.0113468
  38.9665272  -2.7011110  41.7197465  38.1403384  -2.3963120  42.9511645
  42.2769844   3.8748439  40.9396182  41.9854652   4.2378420  41.7759643
  41.6641975   3.1615447  40.7609514  43.4765526   1.4401319  33.4598753
  44.3112418   1.8791123  33.6236313  43.6124655   0.9639972  32.6406998
  40.5257032  -1.0018946  39.4076240  41.0011154  -0.8091300  38.5995092
  39.6022597  -0.9459761  39.1619624  39.2258701  -4.1253186  37.6404546
  40.1776124  -4.0255089  37.6616770  39.0562151  -4.9174918  38.1502630
  37.2473081  -7.0397603  37.8263947  36.6523013  -6.7592590  37.1310435
  36.9622777  -6.5503702  38.5980688  41.7046779  -0.9047067  36.7546846
  41.6723099  -1.8431066  36.9406529  42.3147403  -0.8263030  36.0212670
  41.8541267  -4.1136023  36.8005129  41.3380316  -4.8977567  36.6135058
  42.7381216  -4.4417307  36.9651648  47.5223329   0.1568940  35.8952882
  48.2526717  -0.1045772  36.4560586  46.9130274  -0.5802338  35.9354950
  45.6038626  -1.7023197  36.4927334  44.8771789  -1.8367232  35.8843825
  45.1885913  -1.3946369  37.2984052  33.4268802   2.0166732  44.2574707
  34.3471812   2.1945331  44.4514753  33.3918385   1.0722778  44.1054406
  26.4230875  -0.0732233  36.8997488  26.6416885   0.8584875  36.9185522
  26.8356649  -0.4324258  37.6852292  31.1590010  -1.0701888  45.1065298
  30.6757092  -0.2701528  45.3129187  31.2450949  -1.0593943  44.1532742
  27.0863348   2.8202646  37.1433732  28.0406601   2.7886589  37.0763664
  26.8875871   2.3593270  37.9583958  27.6762730   1.3903762  39.7104530
  28.4955619   1.8847841  39.7339367  27.9499537   0.4735731  39.6822097
  43.2216421  -5.4811345  33.8460765  43.8160912  -5.7215609  33.1354073
  43.2943004  -6.2004214  34.4734301  25.4413576   8.3622266  34.1603930
  25.3068044   7.6022667  33.5941928  25.0245639   9.0863166  33.6932719
  45.5287494  -2.1745144  32.6204186  44.9687051  -2.1051955  33.3935748
  44.9230997  -2.3504160  31.9003683  28.5982702   9.2591583  34.3722373
  28.4815086  10.2037015  34.2701063  27.7775149   8.9565144  34.7608172
  35.4551036   2.7922744  45.9088867  36.3242196   2.9663396  45.5475502
  34.9757788   3.6117161  45.7864597  29.6237216   9.9119845  37.5878301
  30.5264463   9.9443455  37.9044796  29.3974587   8.9820296  37.6024637
  31.3790818   8.6650831  34.2488380  30.4286449   8.6652693  34.1352752
  31.6823305   7.9183566  33.7324414  47.1143512  14.5011370  35.3134142
  47.7521922  14.3818117  34.6097482  46.9964355  15.4492214  35.3722094
  43.9233218  14.4538798  35.2495667  43.5851730  14.3379863  34.3616202
  44.7922986  14.0529963  35.2296673  39.7820034  16.3074274  31.2392558
  39.2184899  16.2164211  30.4708845  39.6672429  15.4874179  31.7195050
  44.4053001  15.6073650  41.2081872  44.3941642  15.2126448  40.3362376
  44.5673641  14.8739722  41.8015644  37.3284466  17.8025466  34.0776778
  38.1205758  17.4616291  33.6623077  37.5681116  17.9120441  34.9978931
  45.3619593  19.9745242  26.5507023  44.7107572  20.5599322  26.1641036
  46.1563955  20.5051437  26.6102060  39.2875220  17.0634379  26.9494157
  40.0606096  16.5163366  26.8107033  39.6400619  17.9278628  27.1608618
  41.1260262  18.3910761  40.1561056  40.8350128  19.2956392  40.0407723
  41.7617247  18.4327289  40.8705126  42.0516469  15.7687610  36.7462416
  42.6480041  15.5443632  36.0319379  42.1091441  15.0272355  37.3487864
  41.6241498  13.2227045  24.5812607  41.8767018  12.7008567  23.8196070
  40.6866057  13.0593191  24.6839290  46.6684780  12.2262824  32.3887350
  47.4547870  11.8082247  32.0377767  46.9323485  13.1308916  32.5568999
  46.8394858  17.6635674  27.0876007  46.2040691  17.7370300  27.7996912
  46.5092264  18.2529273  26.4095086  52.0693208  12.1638057  33.2920329
  52.8018380  11.5937274  33.5258158  51.3132563  11.7759657  33.7326834
  41.3437786  15.1255151  26.7836982  41.2274044  14.4500055  27.4518066
  41.4540046  14.6387525  25.9669135  43.6869327  14.5865298  30.4883671
  43.3227535  14.0595919  31.1996593  44.5436443  14.1963767  30.3150156
  49.5918628   5.8759631  37.7514937  49.2601953   6.7455042  37.5276152
  48.9964241   5.5595915  38.4308968  43.3274814   9.6155198  25.4845020
  43.4949217  10.4835434  25.8515491  43.1371983   9.7782480  24.5606309
  46.0850147  18.0772177  37.1510850  45.7850871  18.9797216  37.0426657
  45.7401207  17.8104360  38.0032003  39.5362629  14.5285974  33.1847554
  38.6113125  14.3962188  33.3925246  39.7847042  15.3080193  33.6817497
  49.4847291  10.5954717  34.8308287  48.5764169  10.5270126  34.5367048
  49.4334887  11.0726662  35.6590113  43.3064035  12.0712856  26.4691686
  43.1863660  12.5169906  27.3077167  42.6116624  12.4198173  25.9105225
  36.8971440  14.1719247  34.0191343  37.0263821  14.4253726  34.9330755
  36.2168891  14.7646955  33.6995999  41.0670927  24.8416497  30.1181818
  40.9894957  25.7924322  30.1970298  40.4632571  24.4962370  30.7756744
  43.5588157  12.0144363  42.7743185  42.7821491  12.5738283  42.7646049
  44.1978720  12.5001146  43.2958055  51.3508938   8.7971156  36.6086161
  50.7083318   9.0903689  35.9625956  50.8463866   8.6824076  37.4139358
  49.0049101  12.5434329  27.2972020  49.9166957  12.7761715  27.1219718
  48.4958748  13.1271373  26.7347099  41.8134529  14.8229816  42.3361152
  42.5549214  15.3614860  42.0595975  41.1071515  15.4496105  42.4932703
  47.2889869  16.9658957  40.9333313  47.6973225  16.5241367  40.1887945
  46.5667130  16.3911584  41.1867506  43.6420939  11.9031563  38.3066870
  44.4882134  12.3270977  38.4501519  43.5819577  11.2465188  39.0005433
  47.6118684  17.5260147  34.6885602  46.9827546  17.6905861  33.9861670
  47.2244346  17.9401757  35.4596566  51.4907916  18.4614585  32.0429966
  50.8058954  18.8413486  31.4926999  51.5751765  19.0709912  32.7761913
  46.7920384   9.5635932  39.9648044  46.5481316  10.3177992  39.4282319
  47.0680315   9.9421279  40.7995291  48.7458847  16.1074544  38.6425309
  48.9575742  16.7506304  37.9659690  48.6988595  15.2736861  38.1747239
  46.3485076   8.7192365  35.5461881  45.4869555   9.0173618  35.8378619
  46.3747511   8.9362764  34.6142914  43.1646645  17.2634555  31.9535687
  43.6284991  17.5422258  31.1640310  42.9003444  16.3618000  31.7708778
  40.0570727  16.8106037  34.8915450  40.6272084  17.2393305  34.2532935
  40.6478838  16.5288621  35.5899636  42.1015532  13.3857708  28.7625252
  42.8039575  13.8378751  29.2299179  41.7696160  12.7441526  29.3905145
  40.5495893  11.9769464  43.1376462  39.9194554  12.6585745  43.3711858
  40.4431981  11.8652546  42.1929600  35.8440866  11.6441260  34.0642386
  35.0539919  11.8998789  33.5882496  36.3352113  12.4589598  34.1694426
  49.8604675  18.9846499  36.8147667  50.6822119  18.5826687  36.5330348
  49.8567078  18.8814734  37.7663782  37.7955611  12.0085840  31.0225862
  36.9986774  12.1204534  31.5409358  37.5681203  12.3472492  30.1566753
  43.6261279  18.5330543  38.9708377  43.6905711  18.9950950  39.8066549
  42.9172202  17.9027908  39.0990687  34.1278568  11.8971751  36.4957377
  34.3786607  12.7818761  36.7614952  34.6638117  11.7176352  35.7232468
  57.9510668  15.3285248  33.1632638  57.1974377  14.7592646  33.0076642
  58.0858209  15.2947912  34.1103273  43.3409296  20.1998650  28.8387357
  43.2054971  21.0450186  29.2672205  43.8819109  20.4017928  28.0753291
  39.8276636   6.2790230  45.5001713  39.4343581   5.7256429  46.1749357
  40.6442776   6.5900809  45.8908230  36.7938694  17.7174088  29.4115282
  37.3063214  18.5117339  29.5620847  37.4461406  17.0200379  29.3448884
  38.6033578  20.8339845  31.4938036  38.7800207  21.7557809  31.3059020
  39.3990412  20.5198264  31.9232415  42.7444597   7.6948109  43.0921969
  43.4854310   8.2955262  43.0126432  42.9762520   6.9525747  42.5340012
  37.8885935  12.8804476  41.3700199  37.7739450  11.9789734  41.6707298
  37.0330453  13.1268173  41.0185015  44.9677773  20.8222217  42.9687699
  44.5241627  20.0358595  42.6508604  45.6294986  21.0101367  42.3031590
  39.7264894  22.3518018  37.4948378  40.2772319  22.2235082  36.7225372
  38.8876370  22.6512907  37.1443271  47.0659011  21.1025017  40.9969101
  47.0477486  21.9233898  40.5049370  47.9878931  20.9779092  41.2219242
  43.5232065  18.6169146  41.8392609  44.0560402  17.8557434  41.6091917
  42.9946146  18.3242798  42.5816764  46.6901760   3.7229212  37.3686251
  46.3466029   4.6130854  37.2925361  47.0580722   3.5330870  36.5055836
  34.7587610  16.0462743  30.1874853  35.5962832  16.4559751  29.9708561
  34.9365878  15.1062185  30.1575047  46.6552042  13.7137823  25.8758686
  46.1398666  14.4842428  26.1147073  46.3829351  13.0402959  26.4991747
  44.2399153   8.5587524  30.9343924  43.3840750   8.1694374  30.7549563
  44.6526105   8.6379485  30.0743710  45.7698300   6.0933867  35.3335484
  45.2663096   6.0564002  34.5203289  46.0628907   7.0026610  35.3932141
  42.0141186   6.1772597  34.3401666  42.8794183   5.9815406  33.9807555
  42.0818695   5.9482949  35.2671023  51.6286317  16.4670178  27.8111859
  50.8515759  16.1281337  27.3667022  52.3077798  16.4722801  27.1366824
  46.4438346  11.5864915  27.7018467  46.1388481  11.9011064  28.5528610
  47.3968788  11.6646335  27.7445800  44.8884777  17.7455139  29.3511421
  44.3606139  17.0107898  29.0384659  44.3872280  18.5229815  29.1051389
  49.8677623  15.9404159  34.4678467  49.2101298  16.6303421  34.5558596
  50.6718023  16.3300591  34.8112454  39.6203505   8.4074805  31.7118033
  40.1947257   8.1849986  30.9791226  40.2074488   8.4763499  32.4646634
  48.6783082  14.2948532  32.5182409  49.1914964  14.9278524  33.0204119
  49.3284306  13.6949727  32.1525769  39.9473092  10.4379266  25.7313918
  39.1110404  10.7753952  26.0523193  39.8077862  10.3028246  24.7941055
  41.9226173   5.2816054  30.4393102  41.2690585   4.9665071  29.8149717
  41.8806647   4.6591794  31.1652925  43.0337378  15.5635349  22.3546394
  42.1264439  15.3324602  22.5537543  43.5308410  14.7672968  22.5420376
  45.9405457  24.2732856  25.2743080  45.2667155  24.5764553  25.8828038
  46.3271279  25.0761936  24.9248537  45.1563913  11.7697987  34.7640750
  44.2386475  11.9912934  34.6062438  45.5724057  11.8444298  33.9052457
  45.9398961  13.1689403  29.8943430  46.6870780  13.6810800  29.5850552
  46.2090550  12.8473456  30.7547824  44.2125611  15.6647944  26.8770384
  43.3036830  15.3806977  26.9742854  44.2420695  16.0847022  26.0173691
  49.4444879  19.2754533  30.6461552  48.9907206  18.4345443  30.7026742
  48.8138845  19.9115932  30.9836332  48.3877798  10.2046519  31.8762219
  47.6500555   9.6923905  32.2072462  48.6404572   9.7646901  31.0645496
  47.8877818  21.1131030  31.5811370  48.1800792  21.6736087  30.8623736
  48.3976438  21.4059591  32.3364529  48.4889425   2.9822771  32.4703989
  48.7948302   2.1220135  32.1829904  49.2142030   3.5740391  32.2702982
  34.7813781  13.3853458  30.8585586  34.5838181  12.7922819  30.1336653
  34.2260445  13.0805668  31.5761525  42.7610505  13.2776564  32.9780180
  42.8159115  12.3250401  32.9022656  41.9501707  13.4336003  33.4621478
  43.9101699  17.2056687  24.2158463  43.4721129  16.4892546  23.7564100
  44.6512140  17.4332802  23.6543554  40.7002865  11.8953624  30.7370558
  39.8870731  12.1947795  31.1435751  41.1961859  11.5009313  31.4545041
  42.8511443  21.8911381  32.6704823  42.8087622  22.1172227  31.7413355
  43.7674142  21.6574756  32.8190624  46.2977077  12.3595449  39.5685452
  46.6526464  12.5866922  40.4279918  46.9449208  12.6913825  38.9462708
  52.0274814  15.4813884  30.2734781  51.8892712  15.6715480  29.3455971
  51.6711032  16.2433267  30.7302833  40.1916940   9.4671980  36.3531793
  40.8316319   9.3260739  35.6554757  39.3594470   9.1806493  35.9770395
  52.0544193  17.5490411  35.2846053  52.4880700  17.4565701  36.1329107
  52.7675774  17.5247912  34.6466069  40.9677244  18.7674410  32.4666786
  41.7617842  18.2724730  32.2649361  40.2568936  18.2392273  32.1034491
  45.7872088  21.1492506  36.8179153  45.8409110  21.7183442  37.5856869
  44.9186870  21.3194391  36.4533191  37.2760007  12.9117492  28.5426539
  36.3457595  12.8501947  28.7596501  37.3717479  12.3893445  27.7463180
  37.1945556   9.4372305  31.1304780  37.4552374  10.3517638  31.0213941
  38.0162729   8.9696747  31.2801393  38.6670482  10.8510062  38.3003605
  39.3393535  10.6427424  37.6516254  37.8400268  10.6532148  37.8608837
  52.9159743  17.5914112  37.8178938  53.1095633  18.4959923  38.0638213
  52.8160361  17.1321531  38.6517523  44.5696054   7.4772003  40.3169266
  43.9223969   8.1761952  40.2233742  45.3397069   7.9108147  40.6845514
  47.9774852  17.7420855  43.3919819  47.8260358  17.5131407  42.4749903
  47.9679531  18.6991456  43.4051164  44.7460188  15.3152768  38.3766085
  45.6752248  15.4663927  38.2035053  44.3251218  15.4036788  37.5214732
  43.5448520  19.3403432  36.1464623  43.4059605  18.9722216  37.0190561
  42.7563116  19.8551071  35.9748581  44.1396672  24.4412529  27.4890160
  44.3148427  23.9700572  28.3035782  43.4529460  25.0678295  27.7171420
  45.0953735  18.7185035  33.5353461  44.7603567  18.6785805  34.4311111
  44.5957681  18.0529751  33.0623871  39.0697979  14.1252665  39.0606042
  38.9317777  13.3932904  39.6617581  39.9802902  14.0361565  38.7790230
  48.0312927  16.0641069  23.8090520  47.4142097  15.3387897  23.7123573
  47.5629415  16.8250429  23.4657595  41.6980279  13.8372624  38.5489722
  42.4079898  13.1965816  38.5076340  41.6549588  14.0885519  39.4715902
  49.6867058  20.7739977  41.4696301  49.6279604  20.0899198  40.8026884
  50.0886577  21.5158967  41.0176927  40.4109213  10.8237842  40.3685361
  39.8746570  10.3728580  41.0206957  39.8225922  10.9583751  39.6255825
  38.7057757  27.5901891  34.2630020  38.9454355  28.2220415  34.9409038
  37.8626953  27.2389931  34.5495379  49.6884465  18.7379561  39.7010280
  48.8011244  18.4005483  39.8236679  50.2583016  18.0062593  39.9379046
  31.3413613  15.0703653  33.0253332  32.0284652  14.7565383  32.4374347
  31.1861741  15.9745018  32.7520583  36.1448335   9.9593850  37.4538356
  36.0606523   9.3519519  36.7188765  35.3231041  10.4502868  37.4547852
  43.2185619  23.3981014  36.6671524  43.1455790  24.2035985  37.1790828
  42.7763012  23.5972980  35.8419545  43.0075398  22.6352784  30.1774345
  42.2242920  23.1774464  30.2712570  43.7068144  23.1526763  30.5768586
  46.3172049   8.4447413  32.8208551  46.8140748   7.6917376  32.5009621
  45.5459030   8.4811730  32.2551760  54.1701806  14.1487779  34.4626842
  54.1591682  15.0312494  34.0920775  53.3019185  13.7959330  34.2681379
  45.6784302  23.2967848  38.8229682  46.3912275  23.9315313  38.7505584
  45.1874331  23.3931714  38.0069684  47.4001829  17.2019100  30.3946974
  46.4658108  17.3220563  30.2251678  47.5778498  16.2991567  30.1306984
  42.9007017  10.5864796  32.5480235  42.5304805  10.0335837  33.2361141
  43.3966110   9.9822930  31.9955235  50.7874381  13.0436420  30.9297008
  51.2534833  13.8764411  30.8557311  51.2381881  12.5781401  31.6342267
  40.7296216  21.0462291  39.6435253  41.4305675  21.6798774  39.7964647
  40.2591331  21.3877023  38.8830892  48.8550612  19.3880241  27.9283160
  49.1310456  19.2736836  28.8377034  47.9855110  18.9897726  27.8895333
  48.7591043   5.4117007  34.9687909  47.8454123   5.6421234  35.1370116
  49.1884145   5.4955451  35.8201942  48.5297502  13.6006899  37.4687803
  47.8768952  13.8482806  36.8140256  48.9077882  12.7871037  37.1350281
  45.4904676  23.6366592  31.5715974  45.6727070  22.8188248  32.0343726
  46.3137662  23.8534284  31.1340864  45.8246841  22.5634777  28.8331022
  46.3534608  22.0527232  28.2201184  46.0875061  22.2477307  29.6976555
  44.5785075  14.3426710  43.9553841  43.9025712  14.2420839  44.6256216
  45.4012709  14.1865923  44.4189838  36.3263934  20.5798646  36.5766356
  36.9117371  19.8342334  36.7094260  36.1288772  20.8902603  37.4603020
  39.1802589  23.6149894  31.5928798  38.5112964  24.0996021  31.1092838
  39.0415459  23.8619114  32.5072177  30.9181589  13.1504246  35.2970799
  30.9565688  12.6167837  36.0907917  30.4121882  12.6239452  34.6781776
  43.3207858  25.6493637  38.1911457  43.8726166  25.8125259  38.9560542
  43.6614051  26.2398075  37.5191481  38.2972351   7.9968787  38.7933341
  38.3613677   8.8583618  38.3810739  38.2339471   7.3842789  38.0605700
  37.7724624  10.0691920  42.4406376  38.3996662   9.6868997  43.0543900
  36.9152542   9.8506121  42.8062068  48.1718732  20.4754895  44.0460111
  48.7158636  21.0884853  43.5515066  47.5905577  21.0334473  44.5627124
  34.5490166  11.8768349  28.3724730  34.8443607  10.9679027  28.3191784
  33.6478202  11.8556088  28.0505733  46.4576245  23.5975613  35.1775139
  46.3327384  22.7965353  34.6686084  47.1155336  24.0921806  34.6889109
  38.0784413   9.9524345  34.3552279  37.3570999  10.5660313  34.2159752
  38.8677669  10.4882110  34.2768925  48.5211153  21.3984633  36.8054689
  47.5741489  21.2789984  36.7333016  48.8693927  20.5107131  36.8880950
  40.8810727   7.2878772  40.6292931  41.4045129   7.5341068  41.3919240
  40.6623060   8.1198807  40.2096068  36.2778008   9.5582446  28.4964056
  35.9490714   8.6779825  28.3139161  36.6317379   9.5030115  29.3840445
  45.5257587  21.1937349  33.0059041  45.3782549  20.2654056  33.1866611
  46.3511080  21.2157440  32.5216116  39.3919831   9.8455416  28.8639533
  39.7315904  10.3741337  28.1418142  39.8391951  10.1835822  29.6398100
  49.1291709  22.0165908  34.0923914  50.0538256  21.8108769  33.9548365
  48.9607012  21.7682309  35.0013255  42.0863272   8.2292467  38.3142601
  41.7460092   7.4300280  38.7163281  41.3802278   8.5294178  37.7419434
  42.7379744   5.3141779  36.7669924  43.5605813   4.8402257  36.6448815
  42.9817807   6.0932263  37.2668611  41.3787978   8.3430038  27.0632826
  42.0996341   8.7211290  26.5596543  40.7553282   9.0618914  27.1667804
  45.5219101   9.0475187  27.9991158  45.7382715   9.9299825  27.6979986
  45.0413168   8.6561400  27.2696800  40.2618322  12.0060900  34.5761903
  40.1162903  12.3201203  35.4686184  39.7843526  12.6245800  34.0232802
  42.1214705   8.9963448  34.6242792  42.1076274   8.1004541  34.2875090
  42.8387133   9.0034112  35.2581078  43.9740836   9.4300788  36.6695920
  43.7158614  10.3517859  36.6680250  43.4425876   9.0331223  37.3596384
  48.9187025  22.5351575  29.4486005  49.0923902  21.9697998  28.6959858
  49.4115916  23.3352470  29.2665495  34.7363985  14.5466244  37.5149564
  34.1917453  15.3226052  37.6469838  35.6143334  14.8937049  37.3568685
  41.5251601   7.8777828  29.8930363  41.6467512   6.9494474  30.0921250
  41.2353644   7.8916514  28.9808678  44.3942792   5.5632739  33.0297082
  44.4164488   5.6272072  32.0749062  44.8110851   4.7237247  33.2237589
  54.7726416  15.2987998  31.0676305  55.2157562  14.5495323  30.6695428
  53.8952926  15.2898134  30.6850037  49.9062197  21.8518340  26.5482904
  50.6013102  22.4725032  26.7670218  50.2485347  21.0013691  26.8235281
  35.5230006  13.6736141  40.4079721  34.7811742  13.8218776  40.9944351
  35.2022751  13.9344406  39.5446470  51.8053620  19.3018045  28.0770234
  52.3304944  19.6405318  27.3519554  51.7175973  18.3665060  27.8933369
  43.4673669  23.2152119  40.2060111  43.7760796  22.9701266  41.0782811
  44.2649151  23.4198757  39.7178981  43.4894281  25.3690028  32.4365487
  43.0499271  24.8766407  33.1298344  44.2402398  24.8262996  32.1957563
  35.9686620  21.5601569  32.4390116  36.7944640  21.2605341  32.0588759
  35.6180672  20.7909192  32.8879904  40.9368153  20.9128037  34.5087789
  40.3148163  20.2498742  34.2090017  41.6073020  20.9389169  33.8261437
  34.1695225  19.4787896  33.3979049  33.3327133  19.0510070  33.2163050
  34.1418871  19.6720339  34.3349840  41.0092681   9.3909825  44.1020295
  41.0580836  10.2671948  43.7198065  41.5515195   8.8487219  43.5291938
  51.4947526  19.9350949  43.3821432  50.7043070  19.9175088  42.8425932
  51.2580881  20.4739242  44.1370469  51.6145401  16.7843415  40.6954161
  51.6643406  16.6193423  41.6369684  51.5059325  15.9170674  40.3052042
  40.4981660  19.4631961  27.9846250  40.6469781  20.1467425  27.3312922
  41.3048104  19.4437051  28.4995705  48.9049164  12.7674343  42.0113468
  49.8059027  12.6280808  41.7197465  48.9797138  12.9328798  42.9511645
  43.2391969  10.1441198  40.8566654  42.3695279  10.4374764  40.5849242
  43.4751450  10.7281643  41.5773917  53.1163598  19.2040357  40.9396182
  52.8248407  19.5670337  41.7759643  52.5035730  18.4907365  40.7609514
  54.3159281  16.7693236  33.4598753  55.1506172  17.2083040  33.6236313
  54.4518409  16.2931890  32.6406998  51.3650787  14.3272971  39.4076240
  51.8404908  14.5200618  38.5995092  50.4416352  14.3832157  39.1619624
  38.2534293  15.4897138  28.9907319  38.0080335  14.5859468  29.1887529
  38.4230208  15.4914289  28.0486797  45.9431003   6.3620815  38.3732074
  46.4612947   7.0981842  38.0478563  45.5886136   6.6684808  39.2078833
  37.5229941  11.2225496  26.4893480  36.8299186  11.2969851  25.8333516
  37.2781693  10.4585840  27.0114997  46.1943597   2.7821097  33.8932971
  46.4745351   2.1144286  34.5193397  46.9794204   2.9750193  33.3807635
  43.9977066  21.9580091  25.4557997  43.4251033  22.5770278  25.0028469
  44.5709859  22.5079453  25.9897919  50.0652456  11.2038731  37.6404546
  51.0169878  11.3036829  37.6616770  49.8955906  10.4117000  38.1502630
  48.0866835   8.2894315  37.8263947  47.4916767   8.5699327  37.1310435
  47.8016532   8.7788215  38.5980688  47.2174325  22.2417241  26.5866579
  48.1504999  22.1762803  26.7899455  47.1297538  23.0773508  26.1281112
  49.8462342  21.5583112  23.5470527  49.7675974  21.2242975  24.4406285
  50.6672009  22.0504880  23.5461999  52.5440533  14.4244851  36.7546846
  52.5116853  13.4860852  36.9406529  53.1541157  14.5028888  36.0212670
  44.3823864  13.2940904  22.7974050  45.3282969  13.1647112  22.8662468
  44.0038109  12.5555566  23.2743478  52.6935022  11.2155894  36.8005129
  52.1774070  10.4314351  36.6135058  53.5774970  10.8874611  36.9651648
  50.3545749   4.9596910  32.7600941  50.1570570   4.6511998  33.6444273
  50.9645454   5.6858549  32.8898871  58.3617083  15.4860858  35.8952882
  59.0920472  15.2246146  36.4560586  57.7524029  14.7489580  35.9354950
  56.4432380  13.6268720  36.4927334  55.7165544  13.4924685  35.8843825
  56.0279667  13.9345549  37.2984052  44.2662557  17.3458650  44.2574707
  45.1865566  17.5237249  44.4514753  44.2312140  16.4014696  44.1054406
  33.4844722  12.5397244  33.1827981  33.1647506  11.6862552  32.8902355
  32.9378150  12.7545822  33.9385949  37.2624629  15.2559685  36.8997488
  37.4810639  16.1876793  36.9185522  37.6750403  14.8967659  37.6852292
  44.1828847   5.7627770  28.8873176  43.3729575   5.4174855  29.2628422
  44.8713264   5.4535314  29.4760788  46.1119395   4.8405817  30.5097473
  46.6650434   5.2601270  31.1687496  46.3489482   3.9141565  30.5520429
  42.1352495  10.8292891  46.2900237  42.0349222  11.7787248  46.2212328
  41.9174037  10.5011129  45.4176307  33.3532982  16.1600155  35.1521103
  32.6596453  15.7454108  34.6391057  34.1005973  16.2020692  34.5554522
  49.4898202   6.9506342  30.0176137  48.9096872   7.6091146  29.6354189
  49.2234135   6.1283687  29.6063555  47.9401769   6.3511400  32.2197457
  48.4401547   6.4627934  31.4111776  48.5837377   6.0472453  32.8598266
  41.9983765  14.2590029  45.1065298  41.5150846  15.0590390  45.3129187
  42.0844704  14.2697974  44.1532742  35.2669724  16.0918409  33.0287118
  35.2440412  16.1906096  32.0769001  35.5770361  16.9383560  33.3504284
  37.9257102  18.1494564  37.1433732  38.8800356  18.1178506  37.0763664
  37.7269626  17.6885188  37.9583958  38.5156484  16.7195680  39.7104530
  39.3349373  17.2139759  39.7339367  38.7893292  15.8027648  39.6822097
  48.2723080   9.1106432  29.0732485  47.3848936   9.3956083  28.8552680
  48.6877070   8.9500196  28.2259762  51.6237617   9.1352953  32.7886825
  52.3998007   9.6249406  33.0611441  50.8985751   9.5611008  33.2458694
  54.0610175   9.8480573  33.8460765  54.6554666   9.6076309  33.1354073
  54.1336759   9.1287703  34.4734301  36.2807331  23.6914184  34.1603930
  36.1461799  22.9314584  33.5941928  35.8639393  24.4155083  33.6932719
  47.4166294  18.8751107  23.1680505  48.1202144  19.0801110  23.7838161
  46.6928943  19.4427869  23.4329589  48.2464104  14.6260968  29.2882775
  48.1899306  15.0829520  28.4490408  48.7992447  13.8651653  29.1105618
  52.0568910  10.4150700  30.1132895  51.8005844  10.0147336  30.9441103
  51.4321778  11.1294494  29.9883034  56.3681248  13.1546774  32.6204186
  55.8080806  13.2239963  33.3935748  55.7624751  12.9787758  31.9003683
  39.4376457  24.5883501  34.3722373  39.3208841  25.5328933  34.2701063
  38.6168903  24.2857062  34.7608172  49.3252991  19.3133636  25.2178965
  50.1598595  18.8814835  25.0356440  49.1637334  19.1415650  26.1455860
  48.9798884  15.8165750  26.5835305  48.9247687  15.6510021  25.6423749
  48.3544939  16.5241783  26.7397494  33.7691399  11.0533814  40.4096727
  34.4150262  10.5432768  40.8983952  33.5608550  11.7902496  40.9840152
  46.2944791  18.1214662  45.9088867  47.1635950  18.2955314  45.5475502
  45.8151542  18.9409078  45.7864597  40.4630971  25.2411763  37.5878301
  41.3658218  25.2735373  37.9044796  40.2368341  24.3112213  37.6024637
  42.2184573  23.9942749  34.2488380  41.2680204  23.9944611  34.1352752
  42.5217059  23.2475484  33.7324414  46.1047128   1.9116635  30.4166560
  45.3379524   1.3575122  30.5623242  46.5157833   1.9838504  31.2780711
  38.1088890   8.2001431  44.5071741  38.9720351   7.8438236  44.7175066
  37.5354300   7.8615326  45.1947145  57.9537266  29.8303287  35.3134142
  58.5915676  29.7110035  34.6097482  57.8358109  30.7784131  35.3722094
  54.7626973  29.7830716  35.2495667  54.4245484  29.6671780  34.3616202
  55.6316741  29.3821881  35.2296673  50.6213788  31.6366192  31.2392558
  50.0578654  31.5456129  30.4708845  50.5066183  30.8166096  31.7195050
  55.2446756  30.9365567  41.2081872  55.2335396  30.5418366  40.3362376
  55.4067395  30.2031640  41.8015644  48.1678220  33.1317384  34.0776778
  48.9599512  32.7908208  33.6623077  48.4074871  33.2412359  34.9978931
  56.2013347  35.3037160  26.5507023  55.5501327  35.8891240  26.1641036
  56.9957710  35.8343355  26.6102060  50.1268974  32.3926297  26.9494157
  50.8999850  31.8455284  26.8107033  50.4794373  33.2570546  27.1608618
  51.9654017  33.7202679  40.1561056  51.6743883  34.6248310  40.0407723
  52.6011001  33.7619207  40.8705126  52.8910224  31.0979528  36.7462416
  53.4873796  30.8735550  36.0319379  52.9485195  30.3564273  37.3487864
  52.4635252  28.5518963  24.5812607  52.7160773  28.0300484  23.8196070
  51.5259811  28.3885108  24.6839290  57.5078535  27.5554741  32.3887350
  58.2941624  27.1374164  32.0377767  57.7717239  28.4600833  32.5568999
  57.6788612  32.9927592  27.0876007  57.0434445  33.0662218  27.7996912
  57.3486019  33.5821190  26.4095086  62.9086962  27.4929975  33.2920329
  63.6412134  26.9229191  33.5258158  62.1526318  27.1051575  33.7326834
  52.1831541  30.4547069  26.7836982  52.0667799  29.7791972  27.4518066
  52.2933801  29.9679443  25.9669135  54.5263082  29.9157216  30.4883671
  54.1621289  29.3887837  31.1996593  55.3830198  29.5255685  30.3150156
  60.4312382  21.2051549  37.7514937  60.0995707  22.0746960  37.5276152
  59.8357996  20.8887833  38.4308968  54.1668569  24.9447116  25.4845020
  54.3342971  25.8127352  25.8515491  53.9765738  25.1074397  24.5606309
  56.9243902  33.4064095  37.1510850  56.6244625  34.3089133  37.0426657
  56.5794961  33.1396278  38.0032003  50.3756383  29.8577891  33.1847554
  49.4506880  29.7254106  33.3925246  50.6240797  30.6372111  33.6817497
  60.3241046  25.9246635  34.8308287  59.4157923  25.8562043  34.5367048
  60.2728642  26.4018580  35.6590113  54.1457790  27.4004773  26.4691686
  54.0257415  27.8461824  27.3077167  53.4510378  27.7490091  25.9105225
  47.7365194  29.5011165  34.0191343  47.8657576  29.7545644  34.9330755
  47.0562646  30.0938873  33.6995999  51.9064682  40.1708415  30.1181818
  51.8288711  41.1216240  30.1970298  51.3026325  39.8254287  30.7756744
  54.3981912  27.3436280  42.7743185  53.6215246  27.9030201  42.7646049
  55.0372475  27.8293063  43.2958055  62.1902692  24.1263073  36.6086161
  61.5477072  24.4195606  35.9625956  61.6857621  24.0115994  37.4139358
  59.8442856  27.8726246  27.2972020  60.7560712  28.1053633  27.1219718
  59.3352503  28.4563291  26.7347099  52.6528284  30.1521734  42.3361152
  53.3942968  30.6906778  42.0595975  51.9465269  30.7788022  42.4932703
  58.1283623  32.2950874  40.9333313  58.5366979  31.8533285  40.1887945
  57.4060885  31.7203502  41.1867506  54.4814694  27.2323481  38.3066870
  55.3275889  27.6562895  38.4501519  54.4213331  26.5757105  39.0005433
  58.4512438  32.8552065  34.6885602  57.8221301  33.0197779  33.9861670
  58.0638100  33.2693674  35.4596566  62.3301670  33.7906503  32.0429966
  61.6452708  34.1705404  31.4926999  62.4145519  34.4001829  32.7761913
  57.6314139  24.8927849  39.9648044  57.3875071  25.6469910  39.4282319
  57.9074069  25.2713197  40.7995291  59.5852602  31.4366462  38.6425309
  59.7969497  32.0798222  37.9659690  59.5382350  30.6028778  38.1747239
  57.1878831  24.0484282  35.5461881  56.3263310  24.3465536  35.8378619
  57.2141265  24.2654681  34.6142914  54.0040400  32.5926473  31.9535687
  54.4678746  32.8714176  31.1640310  53.7397198  31.6909917  31.7708778
  50.8964481  32.1397954  34.8915450  51.4665838  32.5685223  34.2532935
  51.4872593  31.8580539  35.5899636  52.9409286  28.7149625  28.7625252
  53.6433329  29.1670669  29.2299179  52.6089915  28.0733444  29.3905145
  51.3889648  27.3061382  43.1376462  50.7588308  27.9877663  43.3711858
  51.2825735  27.1944464  42.1929600  46.6834620  26.9733178  34.0642386
  45.8933674  27.2290706  33.5882496  47.1745867  27.7881516  34.1694426
  60.6998430  34.3138417  36.8147667  61.5215873  33.9118604  36.5330348
  60.6960832  34.2106651  37.7663782  48.6349365  27.3377757  31.0225862
  47.8380529  27.4496451  31.5409358  48.4074958  27.6764409  30.1566753
  54.4655033  33.8622460  38.9708377  54.5299466  34.3242868  39.8066549
  53.7565957  33.2319825  39.0990687  44.9672323  27.2263668  36.4957377
  45.2180361  28.1110678  36.7614952  45.5031871  27.0468270  35.7232468
  68.7904423  30.6577166  33.1632638  68.0368131  30.0884564  33.0076642
  68.9251964  30.6239830  34.1103273  54.1803051  35.5290568  28.8387357
  54.0448725  36.3742104  29.2672205  54.7212863  35.7309846  28.0753291
  50.6670390  21.6082148  45.5001713  50.2737336  21.0548346  46.1749357
  51.4836531  21.9192726  45.8908230  47.6332448  33.0466006  29.4115282
  48.1456969  33.8409256  29.5620847  48.2855161  32.3492296  29.3448884
  49.4427333  36.1631762  31.4938036  49.6193961  37.0849727  31.3059020
  50.2384166  35.8490181  31.9232415  53.5838351  23.0240027  43.0921969
  54.3248065  23.6247180  43.0126432  53.8156274  22.2817665  42.5340012
  48.7279689  28.2096394  41.3700199  48.6133204  27.3081651  41.6707298
  47.8724207  28.4560091  41.0185015  55.8071527  36.1514134  42.9687699
  55.3635381  35.3650513  42.6508604  56.4688741  36.3393285  42.3031590
  50.5658648  37.6809936  37.4948378  51.1166073  37.5526999  36.7225372
  49.7270124  37.9804825  37.1443271  57.9052765  36.4316934  40.9969101
  57.8871240  37.2525815  40.5049370  58.8272685  36.3071010  41.2219242
  54.3625819  33.9461064  41.8392609  54.8954156  33.1849352  41.6091917
  53.8339900  33.6534716  42.5816764  57.5295514  19.0521130  37.3686251
  57.1859784  19.9422771  37.2925361  57.8974477  18.8622787  36.5055836
  45.5981365  31.3754660  30.1874853  46.4356587  31.7851669  29.9708561
  45.7759633  30.4354102  30.1575047  57.4945797  29.0429741  25.8758686
  56.9792420  29.8134346  26.1147073  57.2223105  28.3694877  26.4991747
  55.0792908  23.8879442  30.9343924  54.2234504  23.4986292  30.7549563
  55.4919860  23.9671402  30.0743710  56.6092055  21.4225785  35.3335484
  56.1056850  21.3855920  34.5203289  56.9022661  22.3318528  35.3932141
  52.8534940  21.5064515  34.3401666  53.7187937  21.3107323  33.9807555
  52.9212449  21.2774866  35.2671023  62.4680071  31.7962096  27.8111859
  61.6909514  31.4573255  27.3667022  63.1471552  31.8014719  27.1366824
  57.2832100  26.9156833  27.7018467  56.9782236  27.2302982  28.5528610
  58.2362542  26.9938253  27.7445800  55.7278532  33.0747056  29.3511421
  55.1999894  32.3399816  29.0384659  55.2266035  33.8521733  29.1051389
  60.7071378  31.2696077  34.4678467  60.0495052  31.9595338  34.5558596
  61.5111777  31.6592509  34.8112454  50.4597260  23.7366723  31.7118033
  51.0341011  23.5141904  30.9791226  51.0468242  23.8055417  32.4646634
  59.5176837  29.6240449  32.5182409  60.0308719  30.2570441  33.0204119
  60.1678061  29.0241645  32.1525769  50.7866847  25.7671184  25.7313918
  49.9504159  26.1045870  26.0523193  50.6471616  25.6320163  24.7941055
  52.7619927  20.6107971  30.4393102  52.1084340  20.2956989  29.8149717
  52.7200401  19.9883712  31.1652925  53.8731132  30.8927267  22.3546394
  52.9658194  30.6616520  22.5537543  54.3702164  30.0964886  22.5420376
  56.7799211  39.6024774  25.2743080  56.1060910  39.9056471  25.8828038
  57.1665033  40.4053854  24.9248537  55.9957668  27.0989905  34.7640750
  55.0780229  27.3204852  34.6062438  56.4117811  27.1736216  33.9052457
  56.7792715  28.4981321  29.8943430  57.5264534  29.0102718  29.5850552
  57.0484305  28.1765373  30.7547824  55.0519366  30.9939861  26.8770384
  54.1430585  30.7098894  26.9742854  55.0814449  31.4138940  26.0173691
  60.2838633  34.6046451  30.6461552  59.8300960  33.7637361  30.7026742
  59.6532600  35.2407849  30.9836332  59.2271553  25.5338437  31.8762219
  58.4894309  25.0215823  32.2072462  59.4798326  25.0938819  31.0645496
  58.7271572  36.4422948  31.5811370  59.0194547  37.0028005  30.8623736
  59.2370193  36.7351509  32.3364529  59.3283180  18.3114689  32.4703989
  59.6342057  17.4512052  32.1829904  60.0535785  18.9032309  32.2702982
  45.6207536  28.7145376  30.8585586  45.4231936  28.1214736  30.1336653
  45.0654200  28.4097586  31.5761525  53.6004260  28.6068482  32.9780180
  53.6552869  27.6542318  32.9022656  52.7895462  28.7627921  33.4621478
  54.7495453  32.5348605  24.2158463  54.3114883  31.8184464  23.7564100
  55.4905894  32.7624720  23.6543554  51.5396620  27.2245542  30.7370558
  50.7264485  27.5239712  31.1435751  52.0355614  26.8301231  31.4545041
  53.6905197  37.2203299  32.6704823  53.6481376  37.4464145  31.7413355
  54.6067896  36.9866673  32.8190624  57.1370831  27.6887366  39.5685452
  57.4920219  27.9158839  40.4279918  57.7842962  28.0205743  38.9462708
  62.8668568  30.8105802  30.2734781  62.7286467  31.0007398  29.3455971
  62.5104787  31.5725185  30.7302833  51.0310694  24.7963897  36.3531793
  51.6710074  24.6552656  35.6554757  50.1988225  24.5098411  35.9770395
  62.8937948  32.8782329  35.2846053  63.3274454  32.7857618  36.1329107
  63.6069528  32.8539830  34.6466069  51.8070998  34.0966328  32.4666786
  52.6011597  33.6016648  32.2649361  51.0962691  33.5684191  32.1034491
  56.6265843  36.4784423  36.8179153  56.6802865  37.0475360  37.5856869
  55.7580624  36.6486308  36.4533191  48.1153762  28.2409409  28.5426539
  47.1851350  28.1793865  28.7596501  48.2111234  27.7185362  27.7463180
  48.0339311  24.7664222  31.1304780  48.2946128  25.6809556  31.0213941
  48.8556483  24.2988665  31.2801393  49.5064236  26.1801979  38.3003605
  50.1787289  25.9719342  37.6516254  48.6794023  25.9824065  37.8608837
  63.7553497  32.9206030  37.8178938  63.9489387  33.8251840  38.0638213
  63.6554115  32.4613449  38.6517523  55.4089808  22.8063920  40.3169266
  54.7617723  23.5053870  40.2233742  56.1790823  23.2400064  40.6845514
  58.8168606  33.0712773  43.3919819  58.6654112  32.8423324  42.4749903
  58.8073285  34.0283374  43.4051164  55.5853942  30.6444685  38.3766085
  56.5146002  30.7955845  38.2035053  55.1644972  30.7328706  37.5214732
  54.3842274  34.6695350  36.1464623  54.2453360  34.3014134  37.0190561
  53.5956870  35.1842989  35.9748581  54.9790426  39.7704446  27.4890160
  55.1542182  39.2992489  28.3035782  54.2923214  40.3970212  27.7171420
  55.9347489  34.0476952  33.5353461  55.5997322  34.0077722  34.4311111
  55.4351435  33.3821668  33.0623871  49.9091733  29.4544582  39.0606042
  49.7711531  28.7224821  39.6617581  50.8196657  29.3653483  38.7790230
  58.8706681  31.3932987  23.8090520  58.2535852  30.6679815  23.7123573
  58.4023169  32.1542347  23.4657595  52.5374034  29.1664542  38.5489722
  53.2473653  28.5257734  38.5076340  52.4943342  29.4177437  39.4715902
  60.5260813  36.1031895  41.4696301  60.4673359  35.4191115  40.8026884
  60.9280331  36.8450885  41.0176927  51.2502968  26.1529760  40.3685361
  50.7140325  25.7020498  41.0206957  50.6619676  26.2875668  39.6255825
  50.6605227  25.6118411  22.9311825  49.7834693  25.4907212  22.5674071
  51.1362980  24.8204489  22.6790713  42.1807367  30.3995571  33.0253332
  42.8678407  30.0857301  32.4374347  42.0255496  31.3036935  32.7520583
  46.9842089  25.2885767  37.4538356  46.9000278  24.6811437  36.7188765
  46.1624796  25.7794786  37.4547852  54.0579373  38.7272931  36.6671524
  53.9849545  39.5327903  37.1790828  53.6156766  38.9264897  35.8419545
  53.8469153  37.9644701  30.1774345  53.0636675  38.5066382  30.2712570
  54.5461898  38.4818681  30.5768586  57.1565803  23.7739331  32.8208551
  57.6534503  23.0209293  32.5009621  56.3852785  23.8103648  32.2551760
  65.0095560  29.4779696  34.4626842  64.9985437  30.3604412  34.0920775
  64.1412940  29.1251247  34.2681379  56.5178057  38.6259765  38.8229682
  57.2306029  39.2607230  38.7505584  56.0268085  38.7223631  38.0069684
  58.2395584  32.5311018  30.3946974  57.3051862  32.6512481  30.2251678
  58.4172252  31.6283485  30.1306984  53.7400772  25.9156714  32.5480235
  53.3698559  25.3627754  33.2361141  54.2359864  25.3114847  31.9955235
  61.6268135  28.3728337  30.9297008  62.0928587  29.2056329  30.8557311
  62.0775636  27.9073319  31.6342267  51.5689970  36.3754209  39.6435253
  52.2699430  37.0090692  39.7964647  51.0985085  36.7168940  38.8830892
  59.6944366  34.7172159  27.9283160  59.9704210  34.6028753  28.8377034
  58.8248865  34.3189644  27.8895333  59.5984798  20.7408924  34.9687909
  58.6847878  20.9713151  35.1370116  60.0277899  20.8247368  35.8201942
  59.3691256  28.9298816  37.4687803  58.7162707  29.1774724  36.8140256
  59.7471636  28.1162955  37.1350281  56.3298430  38.9658510  31.5715974
  56.5120825  38.1480165  32.0343726  57.1531416  39.1826202  31.1340864
  56.6640596  37.8926695  28.8331022  57.1928362  37.3819149  28.2201184
  56.9268815  37.5769225  29.6976555  55.4178829  29.6718627  43.9553841
  54.7419466  29.5712757  44.6256216  56.2406463  29.5157841  44.4189838
  47.1657688  35.9090564  36.5766356  47.7511125  35.1634252  36.7094260
  46.9682527  36.2194521  37.4603020  50.0196344  38.9441811  31.5928798
  49.3506719  39.4287939  31.1092838  49.8809213  39.1911032  32.5072177
  41.7575343  28.4796164  35.2970799  41.7959443  27.9459755  36.0907917
  41.2515636  27.9531370  34.6781776  54.1601612  40.9785555  38.1911457
  54.7119920  41.1417176  38.9560542  54.5007806  41.5689993  37.5191481
  49.1366105  23.3260705  38.7933341  49.2007432  24.1875536  38.3810739
  49.0733226  22.7134706  38.0605700  48.6118378  25.3983837  42.4406376
  49.2390417  25.0160915  43.0543900  47.7546297  25.1798039  42.8062068
  59.0112487  35.8046812  44.0460111  59.5552391  36.4176771  43.5515066
  58.4299331  36.3626391  44.5627124  45.3883921  27.2060266  28.3724730
  45.6837362  26.2970945  28.3191784  44.4871957  27.1848006  28.0505733
  57.2970000  38.9267530  35.1775139  57.1721139  38.1257270  34.6686084
  57.9549091  39.4213724  34.6889109  48.9178168  25.2816263  34.3552279
  48.1964754  25.8952231  34.2159752  49.7071424  25.8174028  34.2768925
  59.3604908  36.7276550  36.8054689  58.4135243  36.6081902  36.7333016
  59.7087681  35.8399048  36.8880950  51.7204481  22.6170689  40.6292931
  52.2438883  22.8632986  41.3919240  51.5016815  23.4490724  40.2096068
  47.1171762  24.8874364  28.4964056  46.7884468  24.0071743  28.3139161
  47.4711133  24.8322033  29.3840445  56.3651341  36.5229267  33.0059041
  56.2176304  35.5945974  33.1866611  57.1904835  36.5449357  32.5216116
  50.2313585  25.1747334  28.8639533  50.5709658  25.7033255  28.1418142
  50.6785706  25.5127740  29.6398100  59.9685463  37.3457825  34.0923914
  60.8932011  37.1400687  33.9548365  59.8000766  37.0974227  35.0013255
  52.9257026  23.5584384  38.3142601  52.5853847  22.7592198  38.7163281
  52.2196033  23.8586095  37.7419434  53.5773498  20.6433697  36.7669924
  54.3999567  20.1694175  36.6448815  53.8211562  21.4224181  37.2668611
  52.2181733  23.6721955  27.0632826  52.9390095  24.0503208  26.5596543
  51.5947037  24.3910832  27.1667804  56.3612856  24.3767104  27.9991158
  56.5776470  25.2591742  27.6979986  55.8806923  23.9853318  27.2696800
  51.1012077  27.3352818  34.5761903  50.9556658  27.6493121  35.4686184
  50.6237281  27.9537718  34.0232802  52.9608460  24.3255366  34.6242792
  52.9470029  23.4296459  34.2875090  53.6780888  24.3326029  35.2581078
  54.8134591  24.7592706  36.6695920  54.5552368  25.6809776  36.6680250
  54.2819631  24.3623140  37.3596384  59.7580779  37.8643493  29.4486005
  59.9317657  37.2989915  28.6959858  60.2509670  38.6644388  29.2665495
  45.5757739  29.8758162  37.5149564  45.0311207  30.6517970  37.6469838
  46.4537089  30.2228966  37.3568685  52.3645356  23.2069746  29.8930363
  52.4861267  22.2786392  30.0921250  52.0747398  23.2208432  28.9808678
  55.2336546  20.8924656  33.0297082  55.2558243  20.9563989  32.0749062
  55.6504605  20.0529165  33.2237589  65.6120170  30.6279916  31.0676305
  66.0551316  29.8787241  30.6695428  64.7346681  30.6190052  30.6850037
  60.7455952  37.1810257  26.5482904  61.4406856  37.8016950  26.7670218
  61.0879102  36.3305608  26.8235281  46.3623761  29.0028058  40.4079721
  45.6205497  29.1510694  40.9944351  46.0416505  29.2636324  39.5446470
  62.6447375  34.6309963  28.0770234  63.1698699  34.9697236  27.3519554
  62.5569727  33.6956978  27.8933369  54.3067424  38.5444036  40.2060111
  54.6154550  38.2993183  41.0782811  55.1042906  38.7490675  39.7178981
  54.3288036  40.6981946  32.4365487  53.8893026  40.2058325  33.1298344
  55.0796153  40.1554914  32.1957563  46.8080375  36.8893487  32.4390116
  47.6338395  36.5897259  32.0588759  46.4574427  36.1201109  32.8879904
  51.7761908  36.2419955  34.5087789  51.1541917  35.5790660  34.2090017
  52.4466775  36.2681087  33.8261437  45.0088980  34.8079813  33.3979049
  44.1720888  34.3801988  33.2163050  44.9812625  35.0012257  34.3349840
  51.8486435  24.7201743  44.1020295  51.8974591  25.5963866  43.7198065
  52.3908949  24.1779136  43.5291938  62.3341281  35.2642866  43.3821432
  61.5436825  35.2467005  42.8425932  62.0974636  35.8031160  44.1370469
  62.4539156  32.1135333  40.6954161  62.5037161  31.9485340  41.6369684
  62.3453079  31.2462592  40.3052042  51.3375415  34.7923878  27.9846250
  51.4863535  35.4759343  27.3312922  52.1441858  34.7728969  28.4995705
  59.7442918  28.0966261  42.0113468  60.6452781  27.9572726  41.7197465
  59.8190893  28.2620716  42.9511645  54.0785724  25.4733116  40.8566654
  53.2089033  25.7666682  40.5849242  54.3145204  26.0573561  41.5773917
  63.9557353  34.5332274  40.9396182  63.6642161  34.8962255  41.7759643
  63.3429484  33.8199283  40.7609514  65.1553035  32.0985154  33.4598753
  65.9899927  32.5374958  33.6236313  65.2912164  31.6223807  32.6406998
  62.2044541  29.6564889  39.4076240  62.6798663  29.8492535  38.5995092
  61.2810106  29.7124075  39.1619624  49.0928048  30.8189056  28.9907319
  48.8474090  29.9151386  29.1887529  49.2623962  30.8206207  28.0486797
  56.7824758  21.6912733  38.3732074  57.3006701  22.4273759  38.0478563
  56.4279890  21.9976726  39.2078833  48.3623695  26.5517414  26.4893480
  47.6692940  26.6261769  25.8333516  48.1175447  25.7877757  27.0114997
  57.0337352  18.1113015  33.8932971  57.3139105  17.4436204  34.5193397
  57.8187959  18.3042111  33.3807635  54.8370820  37.2872009  25.4557997
  54.2644787  37.9062196  25.0028469  55.4103614  37.8371371  25.9897919
  60.9046210  26.5330649  37.6404546  61.8563633  26.6328747  37.6616770
  60.7349660  25.7408918  38.1502630  58.9260590  23.6186232  37.8263947
  58.3310522  23.8991245  37.1310435  58.6410286  24.1080133  38.5980688
  58.0568080  37.5709159  26.5866579  58.9898753  37.5054721  26.7899455
  57.9691293  38.4065426  26.1281112  60.6856097  36.8875029  23.5470527
  60.6069728  36.5534893  24.4406285  61.5065763  37.3796797  23.5461999
  63.3834288  29.7536769  36.7546846  63.3510608  28.8152769  36.9406529
  63.9934911  29.8320805  36.0212670  55.2217619  28.6232822  22.7974050
  56.1676723  28.4939030  22.8662468  54.8431864  27.8847484  23.2743478
  63.5328776  26.5447812  36.8005129  63.0167825  25.7606269  36.6135058
  64.4168725  26.2166529  36.9651648  61.1939503  20.2888828  32.7600941
  60.9964324  19.9803916  33.6444273  61.8039209  21.0150467  32.8898871
  69.2010838  30.8152776  35.8952882  69.9314226  30.5538064  36.4560586
  68.5917783  30.0781498  35.9354950  67.2826135  28.9560638  36.4927334
  66.5559298  28.8216603  35.8843825  66.8673422  29.2637467  37.2984052
  55.1056311  32.6750568  44.2574707  56.0259321  32.8529167  44.4514753
  55.0705894  31.7306613  44.1054406  53.4060536  26.5482798  22.7328935
  52.4991991  26.2515911  22.8091648  53.6836517  26.2512616  21.8663221
  44.3238476  27.8689161  33.1827981  44.0041261  27.0154470  32.8902355
  43.7771904  28.0837740  33.9385949  48.1018384  30.5851602  36.8997488
  48.3204394  31.5168710  36.9185522  48.5144158  30.2259577  37.6852292
  55.0222602  21.0919688  28.8873176  54.2123330  20.7466773  29.2628422
  55.7107019  20.7827232  29.4760788  56.9513150  20.1697735  30.5097473
  57.5044188  20.5893188  31.1687496  57.1883236  19.2433483  30.5520429
  52.9746249  26.1584808  46.2900237  52.8742976  27.1079165  46.2212328
  52.7567791  25.8303047  45.4176307  52.1759320  23.4069733  22.8740914
  53.0378484  23.7324632  23.1336731  52.3609665  22.6201229  22.3613980
  44.1926736  31.4892073  35.1521103  43.4990208  31.0746026  34.6391057
  44.9399727  31.5312609  34.5554522  60.3291957  22.2798260  30.0176137
  59.7490626  22.9383064  29.6354189  60.0627890  21.4575604  29.6063555
  58.7795523  21.6803317  32.2197457  59.2795302  21.7919852  31.4111776
  59.4231131  21.3764370  32.8598266  52.8377519  29.5881947  45.1065298
  52.3544601  30.3882307  45.3129187  52.9238458  29.5989892  44.1532742
  46.1063479  31.4210327  33.0287118  46.0834167  31.5198014  32.0769001
  46.4164115  32.2675478  33.3504284  48.7650857  33.4786482  37.1433732
  49.7194110  33.4470424  37.0763664  48.5663380  33.0177106  37.9583958
  49.3550239  32.0487598  39.7104530  50.1743128  32.5431677  39.7339367
  49.6287046  31.1319566  39.6822097  59.1116835  24.4398350  29.0732485
  58.2242690  24.7248001  28.8552680  59.5270824  24.2792114  28.2259762
  62.4631371  24.4644871  32.7886825  63.2391761  24.9541324  33.0611441
  61.7379505  24.8902925  33.2458694  64.9003930  25.1772490  33.8460765
  65.4948421  24.9368226  33.1354073  64.9730513  24.4579621  34.4734301
  47.1201085  39.0206101  34.1603930  46.9855553  38.2606502  33.5941928
  46.7033148  39.7447001  33.6932719  58.2560048  34.2043025  23.1680505
  58.9595899  34.4093027  23.7838161  57.5322697  34.7719787  23.4329589
  59.0857859  29.9552886  29.2882775  59.0293060  30.4121438  28.4490408
  59.6386201  29.1943571  29.1105618  62.8962665  25.7442618  30.1132895
  62.6399599  25.3439254  30.9441103  62.2715533  26.4586412  29.9883034
  67.2075002  28.4838691  32.6204186  66.6474560  28.5531881  33.3935748
  66.6018506  28.3079676  31.9003683  50.2770211  39.9175418  34.3722373
  50.1602595  40.8620851  34.2701063  49.4562658  39.6148980  34.7608172
  60.1646746  34.6425554  25.2178965  60.9992350  34.2106752  25.0356440
  60.0031089  34.4707568  26.1455860  59.8192638  31.1457667  26.5835305
  59.7641442  30.9801939  25.6423749  59.1938693  31.8533700  26.7397494
  44.6085153  26.3825732  40.4096727  45.2544017  25.8724686  40.8983952
  44.4002304  27.1194413  40.9840152  57.1338545  33.4506579  45.9088867
  58.0029705  33.6247231  45.5475502  56.6545297  34.2700996  45.7864597
  53.1288763  20.6465776  26.1620623  53.1167433  21.5907616  26.3188894
  54.0212185  20.4635922  25.8680084  53.0578327  39.3234667  34.2488380
  52.1073958  39.3236528  34.1352752  53.3610814  38.5767401  33.7324414
  56.9440883  17.2408553  30.4166560  56.1773279  16.6867040  30.5623242
  57.3551588  17.3130422  31.2780711  48.9482644  23.5293349  44.5071741
  49.8114106  23.1730154  44.7175066  48.3748055  23.1907244  45.1947145
  68.7931021  45.1595205  35.3134142  69.4309431  45.0401952  34.6097482
  68.6751864  46.1076049  35.3722094  65.6020727  45.1122633  35.2495667
  65.2639239  44.9963698  34.3616202  66.4710495  44.7113798  35.2296673
  61.4607543  46.9658110  31.2392558  60.8972408  46.8748047  30.4708845
  61.3459938  46.1458014  31.7195050  66.0840510  46.2657485  41.2081872
  66.0729151  45.8710283  40.3362376  66.2461150  45.5323558  41.8015644
  59.0071975  48.4609301  34.0776778  59.7993267  48.1200126  33.6623077
  59.2468625  48.5704276  34.9978931  67.0407102  50.6329077  26.5507023
  66.3895081  51.2183158  26.1641036  67.8351464  51.1635272  26.6102060
  60.9662729  47.7218214  26.9494157  61.7393605  47.1747202  26.8107033
  61.3188128  48.5862464  27.1608618  62.8047771  49.0494597  40.1561056
  62.5137637  49.9540228  40.0407723  63.4404756  49.0911124  40.8705126
  63.7303978  46.4271445  36.7462416  64.3267550  46.2027468  36.0319379
  63.7878950  45.6856191  37.3487864  63.3029007  43.8810881  24.5812607
  63.5554527  43.3592402  23.8196070  62.3653566  43.7177026  24.6839290
  68.3472289  42.8846659  32.3887350  69.1335379  42.4666082  32.0377767
  68.6110994  43.7892751  32.5568999  68.5182367  48.3219509  27.0876007
  67.8828200  48.3954136  27.7996912  68.1879773  48.9113108  26.4095086
  73.7480717  42.8221892  33.2920329  74.4805888  42.2521109  33.5258158
  72.9920072  42.4343493  33.7326834  63.0225295  45.7838987  26.7836982
  62.9061553  45.1083890  27.4518066  63.1327555  45.2971361  25.9669135
  65.3656836  45.2449134  30.4883671  65.0015044  44.7179755  31.1996593
  66.2223952  44.8547603  30.3150156  71.2706137  36.5343466  37.7514937
  70.9389462  37.4038877  37.5276152  70.6751750  36.2179750  38.4308968
  65.0062323  40.2739033  25.4845020  65.1736726  41.1419270  25.8515491
  64.8159492  40.4366315  24.5606309  67.7637656  48.7356012  37.1510850
  67.4638380  49.6381051  37.0426657  67.4188716  48.4688195  38.0032003
  61.2150138  45.1869809  33.1847554  60.2900634  45.0546023  33.3925246
  61.4634551  45.9664028  33.6817497  71.1634800  41.2538552  34.8308287
  70.2551678  41.1853961  34.5367048  71.1122396  41.7310497  35.6590113
  64.9851544  42.7296691  26.4691686  64.8651169  43.1753742  27.3077167
  64.2904133  43.0782009  25.9105225  58.5758949  44.8303083  34.0191343
  58.7051330  45.0837562  34.9330755  57.8956400  45.4230791  33.6995999
  62.7458436  55.5000333  30.1181818  62.6682466  56.4508158  30.1970298
  62.1420080  55.1546205  30.7756744  65.2375666  42.6728198  42.7743185
  64.4609000  43.2322118  42.7646049  65.8766229  43.1584981  43.2958055
  73.0296447  39.4554991  36.6086161  72.3870827  39.7487524  35.9625956
  72.5251375  39.3407911  37.4139358  70.6836610  43.2018164  27.2972020
  71.5954466  43.4345551  27.1219718  70.1746257  43.7855208  26.7347099
  68.9677378  47.6242792  40.9333313  69.3760734  47.1825202  40.1887945
  68.2454639  47.0495419  41.1867506  65.3208448  42.5615399  38.3066870
  66.1669643  42.9854812  38.4501519  65.2607086  41.9049023  39.0005433
  69.2906193  48.1843982  34.6885602  68.6615055  48.3489697  33.9861670
  68.9031855  48.5985592  35.4596566  73.1695424  49.1198420  32.0429966
  72.4846463  49.4997322  31.4926999  73.2539274  49.7293747  32.7761913
  68.4707893  40.2219767  39.9648044  68.2268825  40.9761828  39.4282319
  68.7467824  40.6005115  40.7995291  70.4246356  46.7658379  38.6425309
  70.6363251  47.4090139  37.9659690  70.3776104  45.9320696  38.1747239
  68.0272585  39.3776200  35.5461881  67.1657064  39.6757454  35.8378619
  68.0535020  39.5946599  34.6142914  64.8434154  47.9218391  31.9535687
  65.3072500  48.2006094  31.1640310  64.5790953  47.0201835  31.7708778
  61.7358236  47.4689872  34.8915450  62.3059593  47.8977140  34.2532935
  62.3266347  47.1872457  35.5899636  63.7803041  44.0441543  28.7625252
  64.4827084  44.4962587  29.2299179  63.4483669  43.4025362  29.3905145
  62.2283402  42.6353300  43.1376462  61.5982063  43.3169580  43.3711858
  62.1219490  42.5236381  42.1929600  57.5228374  42.3025096  34.0642386
  56.7327428  42.5582624  33.5882496  58.0139622  43.1173433  34.1694426
  71.5392184  49.6430335  36.8147667  72.3609628  49.2410522  36.5330348
  71.5354587  49.5398569  37.7663782  59.4743120  42.6669675  31.0225862
  58.6774283  42.7788369  31.5409358  59.2468712  43.0056327  30.1566753
  65.3048787  49.1914378  38.9708377  65.3693220  49.6534785  39.8066549
  64.5959711  48.5611743  39.0990687  55.8066077  42.5555586  36.4957377
  56.0574116  43.4402596  36.7614952  56.3425626  42.3760188  35.7232468
  79.6298177  45.9869083  33.1632638  78.8761885  45.4176481  33.0076642
  79.7645718  45.9531748  34.1103273  65.0196805  50.8582486  28.8387357
  64.8842480  51.7034021  29.2672205  65.5606618  51.0601763  28.0753291
  61.5064145  36.9374065  45.5001713  61.1131090  36.3840264  46.1749357
  62.3230285  37.2484644  45.8908230  58.4726203  48.3757924  29.4115282
  58.9850723  49.1701174  29.5620847  59.1248915  47.6784214  29.3448884
  60.2821087  51.4923680  31.4938036  60.4587716  52.4141645  31.3059020
  61.0777921  51.1782099  31.9232415  64.4232106  38.3531945  43.0921969
  65.1641819  38.9539098  43.0126432  64.6550029  37.6109582  42.5340012
  59.5673444  43.5388312  41.3700199  59.4526959  42.6373569  41.6707298
  58.7117962  43.7852009  41.0185015  66.6465282  51.4806052  42.9687699
  66.2029136  50.6942431  42.6508604  67.3082495  51.6685203  42.3031590
  68.7446520  51.7608852  40.9969101  68.7264995  52.5817733  40.5049370
  69.6666440  51.6362927  41.2219242  65.2019574  49.2752982  41.8392609
  65.7347911  48.5141270  41.6091917  64.6733655  48.9826633  42.5816764
  68.3689269  34.3813047  37.3686251  68.0253538  35.2714689  37.2925361
  68.7368231  34.1914705  36.5055836  56.4375119  46.7046578  30.1874853
  57.2750341  47.1143586  29.9708561  56.6153387  45.7646020  30.1575047
  68.3339551  44.3721659  25.8758686  67.8186175  45.1426263  26.1147073
  68.0616860  43.6986795  26.4991747  65.9186662  39.2171359  30.9343924
  65.0628259  38.8278210  30.7549563  66.3313614  39.2963320  30.0743710
  67.4485809  36.7517703  35.3335484  66.9450605  36.7147838  34.5203289
  67.7416416  37.6610445  35.3932141  63.6928695  36.8356432  34.3401666
  64.5581692  36.6399241  33.9807555  63.7606204  36.6066784  35.2671023
  73.3073826  47.1254013  27.8111859  72.5303268  46.7865173  27.3667022
  73.9865307  47.1306636  27.1366824  68.1225855  42.2448751  27.7018467
  67.8175990  42.5594900  28.5528610  69.0756297  42.3230171  27.7445800
  66.5672286  48.4038974  29.3511421  66.0393648  47.6691734  29.0384659
  66.0659789  49.1813650  29.1051389  71.5465132  46.5987994  34.4678467
  70.8888807  47.2887256  34.5558596  72.3505532  46.9884426  34.8112454
  61.2991014  39.0658640  31.7118033  61.8734766  38.8433822  30.9791226
  61.8861997  39.1347335  32.4646634  70.3570591  44.9532367  32.5182409
  70.8702473  45.5862359  33.0204119  71.0071815  44.3533563  32.1525769
  61.6260601  41.0963101  25.7313918  60.7897913  41.4337788  26.0523193
  61.4865371  40.9612081  24.7941055  63.6013682  35.9399889  30.4393102
  62.9478094  35.6248906  29.8149717  63.5594156  35.3175630  31.1652925
  64.7124887  46.2219184  22.3546394  63.8051948  45.9908438  22.5537543
  65.2095919  45.4256803  22.5420376  67.6192966  54.9316691  25.2743080
  66.9454664  55.2348388  25.8828038  68.0058787  55.7345772  24.9248537
  66.8351422  42.4281823  34.7640750  65.9173984  42.6496770  34.6062438
  67.2511566  42.5028133  33.9052457  67.6186470  43.8273238  29.8943430
  68.3658289  44.3394636  29.5850552  67.8878059  43.5057291  30.7547824
  65.8913120  46.3231779  26.8770384  64.9824339  46.0390812  26.9742854
  65.9208204  46.7430858  26.0173691  71.1232387  49.9338369  30.6461552
  70.6694715  49.0929278  30.7026742  70.4926354  50.5699767  30.9836332
  70.0665307  40.8630355  31.8762219  69.3288064  40.3507741  32.2072462
  70.3192081  40.4230736  31.0645496  69.5665327  51.7714865  31.5811370
  69.8588301  52.3319922  30.8623736  70.0763947  52.0643426  32.3364529
  70.1676934  33.6406607  32.4703989  70.4735811  32.7803970  32.1829904
  70.8929539  34.2324227  32.2702982  56.4601290  44.0437293  30.8585586
  56.2625690  43.4506654  30.1336653  55.9047954  43.7389503  31.5761525
  64.4398014  43.9360400  32.9780180  64.4946624  42.9834236  32.9022656
  63.6289216  44.0919839  33.4621478  65.5889208  47.8640523  24.2158463
  65.1508638  47.1476382  23.7564100  66.3299649  48.0916638  23.6543554
  62.3790374  42.5537459  30.7370558  61.5658240  42.8531630  31.1435751
  62.8749368  42.1593148  31.4545041  64.5298952  52.5495216  32.6704823
  64.4875131  52.7756063  31.7413355  65.4461651  52.3158591  32.8190624
  67.9764586  43.0179284  39.5685452  68.3313973  43.2450757  40.4279918
  68.6236717  43.3497661  38.9462708  73.7062323  46.1397720  30.2734781
  73.5680221  46.3299316  29.3455971  73.3498541  46.9017103  30.7302833
  61.8704449  40.1255815  36.3531793  62.5103828  39.9844574  35.6554757
  61.0381979  39.8390328  35.9770395  73.7331702  48.2074247  35.2846053
  74.1668209  48.1149536  36.1329107  74.4463283  48.1831747  34.6466069
  62.6464753  49.4258245  32.4666786  63.4405351  48.9308566  32.2649361
  61.9356445  48.8976109  32.1034491  67.4659597  51.8076341  36.8179153
  67.5196619  52.3767277  37.5856869  66.5974379  51.9778226  36.4533191
  58.9547516  43.5701327  28.5426539  58.0245104  43.5085783  28.7596501
  59.0504988  43.0477280  27.7463180  58.8733065  40.0956140  31.1304780
  59.1339883  41.0101473  31.0213941  59.6950238  39.6280583  31.2801393
  60.3457991  41.5093897  38.3003605  61.0181044  41.3011259  37.6516254
  59.5187777  41.3115983  37.8608837  74.5947252  48.2497947  37.8178938
  74.7883142  49.1543758  38.0638213  74.4947870  47.7905367  38.6517523
  66.2483563  38.1355838  40.3169266  65.6011478  38.8345788  40.2233742
  67.0184578  38.5691982  40.6845514  69.6562361  48.4004690  43.3919819
  69.5047867  48.1715242  42.4749903  69.6467040  49.3575292  43.4051164
  66.4247697  45.9736603  38.3766085  67.3539757  46.1247763  38.2035053
  66.0038727  46.0620624  37.5214732  65.2236029  49.9987267  36.1464623
  65.0847114  49.6306052  37.0190561  64.4350625  50.5134907  35.9748581
  65.8184181  55.0996364  27.4890160  65.9935936  54.6284407  28.3035782
  65.1316969  55.7262130  27.7171420  66.7741244  49.3768870  33.5353461
  66.4391076  49.3369640  34.4311111  66.2745190  48.7113586  33.0623871
  60.7485488  44.7836500  39.0606042  60.6105286  44.0516739  39.6617581
  61.6590411  44.6945400  38.7790230  69.7100435  46.7224904  23.8090520
  69.0929606  45.9971733  23.7123573  69.2416924  47.4834265  23.4657595
  63.3767788  44.4956459  38.5489722  64.0867407  43.8549652  38.5076340
  63.3337097  44.7469354  39.4715902  71.3654567  51.4323813  41.4696301
  71.3067113  50.7483033  40.8026884  71.7674086  52.1742803  41.0176927
  62.0896722  41.4821677  40.3685361  61.5534079  41.0312416  41.0206957
  61.5013431  41.6167586  39.6255825  61.4998981  40.9410329  22.9311825
  60.6228448  40.8199130  22.5674071  61.9756734  40.1496407  22.6790713
  71.3671974  49.3963397  39.7010280  70.4798753  49.0589319  39.8236679
  71.9370525  48.6646428  39.9379046  53.0201122  45.7287488  33.0253332
  53.7072161  45.4149218  32.4374347  52.8649250  46.6328853  32.7520583
  57.8235844  40.6177685  37.4538356  57.7394032  40.0103355  36.7188765
  57.0018550  41.1086703  37.4547852  64.8973128  54.0564849  36.6671524
  64.8243299  54.8619821  37.1790828  64.4550521  54.2556815  35.8419545
  64.6862907  53.2936619  30.1774345  63.9030429  53.8358299  30.2712570
  65.3855653  53.8110599  30.5768586  67.9959558  39.1031249  32.8208551
  68.4928257  38.3501211  32.5009621  67.2246539  39.1395565  32.2551760
  75.8489315  44.8071614  34.4626842  75.8379191  45.6896330  34.0920775
  74.9806694  44.4543165  34.2681379  67.3571811  53.9551683  38.8229682
  68.0699784  54.5899148  38.7505584  66.8661840  54.0515549  38.0069684
  69.0789338  47.8602936  30.3946974  68.1445617  47.9804398  30.2251678
  69.2566007  46.9575403  30.1306984  64.5794526  41.2448632  32.5480235
  64.2092314  40.6919672  33.2361141  65.0753619  40.6406765  31.9955235
  72.4661890  43.7020255  30.9297008  72.9322342  44.5348247  30.8557311
  72.9169390  43.2365237  31.6342267  70.5338121  50.0464076  27.9283160
  70.8097965  49.9320671  28.8377034  69.6642619  49.6481561  27.8895333
  70.4378552  36.0700842  34.9687909  69.5241632  36.3005069  35.1370116
  70.8671654  36.1539286  35.8201942  70.2085011  44.2590734  37.4687803
  69.5556461  44.5066641  36.8140256  70.5865391  43.4454872  37.1350281
  67.1692185  54.2950427  31.5715974  67.3514579  53.4772083  32.0343726
  67.9925171  54.5118119  31.1340864  67.5034350  53.2218612  28.8331022
  68.0322117  52.7111067  28.2201184  67.7662570  52.9061143  29.6976555
  66.2572584  45.0010545  43.9553841  65.5813221  44.9004674  44.6256216
  67.0800218  44.8449759  44.4189838  64.9995367  56.3077473  38.1911457
  65.5513675  56.4709094  38.9560542  65.3401560  56.8981910  37.5191481
  59.9759860  38.6552622  38.7933341  60.0401186  39.5167453  38.3810739
  59.9126980  38.0426624  38.0605700  59.4512132  40.7275755  42.4406376
  60.0784171  40.3452832  43.0543900  58.5940051  40.5089957  42.8062068
  69.8506241  51.1338730  44.0460111  70.3946145  51.7468688  43.5515066
  69.2693086  51.6918308  44.5627124  56.2277675  42.5352184  28.3724730
  56.5231116  41.6262862  28.3191784  55.3265711  42.5139923  28.0505733
  68.1363754  54.2559448  35.1775139  68.0114893  53.4549188  34.6686084
  68.7942845  54.7505641  34.6889109  59.7571922  40.6108181  34.3552279
  59.0358508  41.2244148  34.2159752  60.5465178  41.1465945  34.2768925
  70.1998662  52.0568468  36.8054689  69.2528998  51.9373819  36.7333016
  70.5481436  51.1690966  36.8880950  62.5598236  37.9462607  40.6292931
  63.0832638  38.1924904  41.3919240  62.3410569  38.7782642  40.2096068
  57.9565517  40.2166282  28.4964056  57.6278223  39.3363661  28.3139161
  58.3104888  40.1613950  29.3840445  67.2045096  51.8521184  33.0059041
  67.0570058  50.9237892  33.1866611  68.0298589  51.8741275  32.5216116
  61.0707340  40.5039251  28.8639533  61.4103412  41.0325173  28.1418142
  61.5179460  40.8419658  29.6398100  70.8079218  52.6749743  34.0923914
  71.7325765  52.4692604  33.9548365  70.6394521  52.4266144  35.0013255
  63.7650781  38.8876302  38.3142601  63.4247601  38.0884115  38.7163281
  63.0589787  39.1878013  37.7419434  64.4167253  35.9725615  36.7669924
  65.2393322  35.4986093  36.6448815  64.6605316  36.7516098  37.2668611
  63.0575487  39.0013873  27.0632826  63.7783850  39.3795126  26.5596543
  62.4340791  39.7202750  27.1667804  67.2006610  39.7059022  27.9991158
  67.4170224  40.5883660  27.6979986  66.7200677  39.3145235  27.2696800
  61.9405831  42.6644735  34.5761903  61.7950412  42.9785038  35.4686184
  61.4631035  43.2829636  34.0232802  63.8002214  39.6547283  34.6242792
  63.7863783  38.7588377  34.2875090  64.5174642  39.6617947  35.2581078
  65.6528345  40.0884623  36.6695920  65.3946123  41.0101694  36.6680250
  65.1213385  39.6915058  37.3596384  70.5974534  53.1935411  29.4486005
  70.7711411  52.6281833  28.6959858  71.0903425  53.9936305  29.2665495
  56.4151494  45.2050080  37.5149564  55.8704962  45.9809888  37.6469838
  57.2930843  45.5520884  37.3568685  63.2039110  38.5361663  29.8930363
  63.3255021  37.6078310  30.0921250  62.9141153  38.5500349  28.9808678
  66.0730301  36.2216574  33.0297082  66.0951997  36.2855907  32.0749062
  66.4898360  35.3821083  33.2237589  76.4513925  45.9571833  31.0676305
  76.8945071  45.2079159  30.6695428  75.5740435  45.9481970  30.6850037
  71.5849706  52.5102175  26.5482904  72.2800611  53.1308868  26.7670218
  71.9272856  51.6597526  26.8235281  57.2017515  44.3319976  40.4079721
  56.4599251  44.4802611  40.9944351  56.8810260  44.5928241  39.5446470
  73.4841129  49.9601880  28.0770234  74.0092453  50.2989153  27.3519554
  73.3963482  49.0248896  27.8933369  65.1681790  56.0273864  32.4365487
  64.7286780  55.5350242  33.1298344  65.9189907  55.4846831  32.1957563
  62.6155662  51.5711873  34.5087789  61.9935672  50.9082578  34.2090017
  63.2860529  51.5973005  33.8261437  62.6880190  40.0493661  44.1020295
  62.7368345  40.9255784  43.7198065  63.2302704  39.5071054  43.5291938
  73.1735035  50.5934784  43.3821432  72.3830579  50.5758923  42.8425932
  72.9368390  51.1323078  44.1370469  73.2932910  47.4427250  40.6954161
  73.3430915  47.2777258  41.6369684  73.1846834  46.5754509  40.3052042
  62.1769169  50.1215796  27.9846250  62.3257290  50.8051261  27.3312922
  62.9835613  50.1020886  28.4995705  70.5836673  43.4258178  42.0113468
  71.4846536  43.2864643  41.7197465  70.6584647  43.5912633  42.9511645
  64.9179478  40.8025033  40.8566654  64.0482788  41.0958599  40.5849242
  65.1538959  41.3865478  41.5773917  74.7951107  49.8624192  40.9396182
  74.5035916  50.2254173  41.7759643  74.1823239  49.1491200  40.7609514
  75.9946790  47.4277072  33.4598753  76.8293681  47.8666876  33.6236313
  76.1305918  46.9515725  32.6406998  73.0438296  44.9856807  39.4076240
  73.5192417  45.1784453  38.5995092  72.1203861  45.0415992  39.1619624
  59.9321802  46.1480974  28.9907319  59.6867844  45.2443304  29.1887529
  60.1017717  46.1498124  28.0486797  67.6218512  37.0204650  38.3732074
  68.1400456  37.7565677  38.0478563  67.2673645  37.3268643  39.2078833
  59.2017450  41.8809331  26.4893480  58.5086695  41.9553686  25.8333516
  58.9569202  41.1169675  27.0114997  67.8731106  33.4404933  33.8932971
  68.1532860  32.7728122  34.5193397  68.6581713  33.6334028  33.3807635
  65.6764575  52.6163927  25.4557997  65.1038542  53.2354114  25.0028469
  66.2497368  53.1663288  25.9897919  71.7439965  41.8622567  37.6404546
  72.6957387  41.9620664  37.6616770  71.5743415  41.0700835  38.1502630
  69.7654344  38.9478150  37.8263947  69.1704276  39.2283163  37.1310435
  69.4804041  39.4372051  38.5980688  68.8961834  52.9001077  26.5866579
  69.8292508  52.8346638  26.7899455  68.8085047  53.7357344  26.1281112
  71.5249851  52.2166947  23.5470527  71.4463483  51.8826811  24.4406285
  72.3459518  52.7088715  23.5461999  74.2228042  45.0828686  36.7546846
  74.1904362  44.1444687  36.9406529  74.8328666  45.1612723  36.0212670
  66.0611373  43.9524739  22.7974050  67.0070478  43.8230947  22.8662468
  65.6825618  43.2139401  23.2743478  74.3722531  41.8739730  36.8005129
  73.8561579  41.0898186  36.6135058  75.2562479  41.5458446  36.9651648
  72.0333258  35.6180745  32.7600941  71.8358079  35.3095834  33.6444273
  72.6432963  36.3442384  32.8898871  80.0404592  46.1444693  35.8952882
  80.7707981  45.8829981  36.4560586  79.4311538  45.4073415  35.9354950
  78.1219889  44.2852556  36.4927334  77.3953053  44.1508521  35.8843825
  77.7067176  44.5929384  37.2984052  64.2454290  41.8774716  22.7328935
  63.3385746  41.5807828  22.8091648  64.5230271  41.5804534  21.8663221
  55.1632231  43.1981079  33.1827981  54.8435015  42.3446387  32.8902355
  54.6165659  43.4129657  33.9385949  58.9412138  45.9143520  36.8997488
  59.1598148  46.8460628  36.9185522  59.3537912  45.5551495  37.6852292
  65.8616356  36.4211605  28.8873176  65.0517084  36.0758690  29.2628422
  66.5500773  36.1119149  29.4760788  67.7906904  35.4989652  30.5097473
  68.3437943  35.9185106  31.1687496  68.0276991  34.5725400  30.5520429
  63.8140004  41.4876726  46.2900237  63.7136730  42.4371083  46.2212328
  63.5961546  41.1594965  45.4176307  63.0153075  38.7361651  22.8740914
  63.8772239  39.0616549  23.1336731  63.2003419  37.9493147  22.3613980
  55.0320491  46.8183991  35.1521103  54.3383962  46.4037943  34.6391057
  55.7793482  46.8604527  34.5554522  71.1685711  37.6090177  30.0176137
  70.5884380  38.2674981  29.6354189  70.9021644  36.7867522  29.6063555
  69.6189278  37.0095235  32.2197457  70.1189056  37.1211770  31.4111776
  70.2624886  36.7056288  32.8598266  63.6771274  44.9173865  45.1065298
  63.1938355  45.7174225  45.3129187  63.7632213  44.9281810  44.1532742
  56.9457233  46.7502244  33.0287118  56.9227921  46.8489932  32.0769001
  57.2557870  47.5967395  33.3504284  59.6044611  48.8078399  37.1433732
  60.5587865  48.7762342  37.0763664  59.4057135  48.3469023  37.9583958
  60.1943993  47.3779516  39.7104530  61.0136882  47.8723594  39.7339367
  60.4680801  46.4611484  39.6822097  69.9510589  39.7690268  29.0732485
  69.0636444  40.0539918  28.8552680  70.3664579  39.6084031  28.2259762
  73.3025126  39.7936789  32.7886825  74.0785516  40.2833241  33.0611441
  72.5773260  40.2194843  33.2458694  75.7397684  40.5064408  33.8460765
  76.3342175  40.2660144  33.1354073  75.8124268  39.7871539  34.4734301
  69.0953803  49.5334942  23.1680505  69.7989653  49.7384945  23.7838161
  68.3716452  50.1011704  23.4329589  69.9251613  45.2844804  29.2882775
  69.8686815  45.7413355  28.4490408  70.4779956  44.5235488  29.1105618
  73.7356419  41.0734536  30.1132895  73.4793353  40.6731171  30.9441103
  73.1109287  41.7878330  29.9883034  78.0468757  43.8130609  32.6204186
  77.4868315  43.8823798  33.3935748  77.4412260  43.6371593  31.9003683
  71.0040500  49.9717472  25.2178965  71.8386104  49.5398670  25.0356440
  70.8424843  49.7999485  26.1455860  70.6586393  46.4749585  26.5835305
  70.6035196  46.3093856  25.6423749  70.0332448  47.1825618  26.7397494
  55.4478908  41.7117649  40.4096727  56.0937771  41.2016603  40.8983952
  55.2396059  42.4486331  40.9840152  63.9682518  35.9757694  26.1620623
  63.9561188  36.9199534  26.3188894  64.8605940  35.7927839  25.8680084
  67.7834637  32.5700471  30.4166560  67.0167033  32.0158957  30.5623242
  68.1945342  32.6422339  31.2780711  59.7876398  38.8585266  44.5071741
  60.6507860  38.5022071  44.7175066  59.2141809  38.5199161  45.1947145
  79.6324775  60.4887123  35.3134142  80.2703185  60.3693870  34.6097482
  79.5145618  61.4367967  35.3722094  76.4414482  60.4414551  35.2495667
  76.1032993  60.3255616  34.3616202  77.3104250  60.0405716  35.2296673
  72.3001297  62.2950027  31.2392558  71.7366163  62.2039964  30.4708845
  72.1853692  61.4749932  31.7195050  76.9234265  61.5949403  41.2081872
  76.9122905  61.2002201  40.3362376  77.0854904  60.8615475  41.8015644
  69.8465729  63.7901219  34.0776778  70.6387021  63.4492044  33.6623077
  70.0862379  63.8996194  34.9978931  77.8800856  65.9620995  26.5507023
  77.2288836  66.5475075  26.1641036  78.6745219  66.4927190  26.6102060
  71.8056483  63.0510132  26.9494157  72.5787359  62.5039119  26.8107033
  72.1581882  63.9154381  27.1608618  73.6441526  64.3786514  40.1561056
  73.3531392  65.2832145  40.0407723  74.2798510  64.4203042  40.8705126
  74.5697733  61.7563363  36.7462416  75.1661305  61.5319385  36.0319379
  74.6272704  61.0148108  37.3487864  74.1422761  59.2102798  24.5812607
  74.3948282  58.6884320  23.8196070  73.2047320  59.0468944  24.6839290
  79.1866044  58.2138577  32.3887350  79.9729133  57.7958000  32.0377767
  79.4504748  59.1184669  32.5568999  79.3576121  63.6511427  27.0876007
  78.7221954  63.7246053  27.7996912  79.0273528  64.2405026  26.4095086
  84.5874471  58.1513810  33.2920329  85.3199643  57.5813027  33.5258158
  83.8313827  57.7635410  33.7326834  73.8619050  61.1130904  26.7836982
  73.7455308  60.4375808  27.4518066  73.9721310  60.6263278  25.9669135
  76.2050591  60.5741051  30.4883671  75.8408798  60.0471672  31.1996593
  77.0617707  60.1839520  30.3150156  82.1099891  51.8635384  37.7514937
  81.7783216  52.7330795  37.5276152  81.5145505  51.5471668  38.4308968
  75.8456078  55.6030951  25.4845020  76.0130480  56.4711187  25.8515491
  75.6553247  55.7658233  24.5606309  78.6031411  64.0647930  37.1510850
  78.3032134  64.9672969  37.0426657  78.2582470  63.7980113  38.0032003
  72.0543892  60.5161727  33.1847554  71.1294389  60.3837941  33.3925246
  72.3028306  61.2955946  33.6817497  82.0028555  56.5830470  34.8308287
  81.0945432  56.5145879  34.5367048  81.9516151  57.0602415  35.6590113
  75.8245299  58.0588609  26.4691686  75.7044924  58.5045659  27.3077167
  75.1297887  58.4073926  25.9105225  69.4152703  60.1595000  34.0191343
  69.5445085  60.4129479  34.9330755  68.7350155  60.7522708  33.6995999
  73.5852191  70.8292250  30.1181818  73.5076220  71.7800075  30.1970298
  72.9813834  70.4838123  30.7756744  76.0769420  58.0020116  42.7743185
  75.3002755  58.5614036  42.7646049  76.7159984  58.4876899  43.2958055
  83.8690201  54.7846909  36.6086161  83.2264581  55.0779442  35.9625956
  83.3645130  54.6699829  37.4139358  81.5230365  58.5310082  27.2972020
  82.4348221  58.7637468  27.1219718  81.0140012  59.1147126  26.7347099
  74.3315793  60.8105569  42.3361152  75.0730477  61.3490613  42.0595975
  73.6252778  61.4371858  42.4932703  79.8071132  62.9534710  40.9333313
  80.2154488  62.5117120  40.1887945  79.0848394  62.3787337  41.1867506
  76.1602202  57.8907316  38.3066870  77.0063398  58.3146730  38.4501519
  76.1000840  57.2340941  39.0005433  80.1299947  63.5135900  34.6885602
  79.5008810  63.6781614  33.9861670  79.7425609  63.9277510  35.4596566
  84.0089179  64.4490338  32.0429966  83.3240217  64.8289239  31.4926999
  84.0933028  65.0585665  32.7761913  79.3101648  55.5511685  39.9648044
  79.0662580  56.3053745  39.4282319  79.5861578  55.9297032  40.7995291
  81.2640111  62.0950297  38.6425309  81.4757006  62.7382057  37.9659690
  81.2169859  61.2612614  38.1747239  78.8666340  54.7068118  35.5461881
  78.0050819  55.0049371  35.8378619  78.8928774  54.9238517  34.6142914
  75.6827909  63.2510308  31.9535687  76.1466254  63.5298011  31.1640310
  75.4184707  62.3493753  31.7708778  72.5751990  62.7981790  34.8915450
  73.1453347  63.2269058  34.2532935  73.1660102  62.5164375  35.5899636
  74.6196795  59.3733461  28.7625252  75.3220838  59.8254504  29.2299179
  74.2877424  58.7317279  29.3905145  73.0677157  57.9645217  43.1376462
  72.4375817  58.6461498  43.3711858  72.9613244  57.8528299  42.1929600
  68.3622129  57.6317013  34.0642386  67.5721183  57.8874542  33.5882496
  68.8533376  58.4465351  34.1694426  82.3785939  64.9722252  36.8147667
  83.2003382  64.5702440  36.5330348  82.3748341  64.8690487  37.7663782
  70.3136874  57.9961593  31.0225862  69.5168038  58.1080287  31.5409358
  70.0862467  58.3348245  30.1566753  76.1442542  64.5206296  38.9708377
  76.2086974  64.9826703  39.8066549  75.4353466  63.8903661  39.0990687
  66.6459832  57.8847504  36.4957377  66.8967870  58.7694514  36.7614952
  67.1819380  57.7052105  35.7232468  90.4691932  61.3161001  33.1632638
  89.7155640  60.7468399  33.0076642  90.6039473  61.2823665  34.1103273
  75.8590560  66.1874403  28.8387357  75.7236234  67.0325939  29.2672205
  76.4000372  66.3893681  28.0753291  72.3457899  52.2665983  45.5001713
  71.9524845  51.7132182  46.1749357  73.1624040  52.5776562  45.8908230
  69.3119957  63.7049841  29.4115282  69.8244478  64.4993092  29.5620847
  69.9642670  63.0076132  29.3448884  71.1214842  66.8215598  31.4938036
  71.2981470  67.7433562  31.3059020  71.9171675  66.5074017  31.9232415
  75.2625860  53.6823862  43.0921969  76.0035574  54.2831015  43.0126432
  75.4943783  52.9401500  42.5340012  70.4067198  58.8680229  41.3700199
  70.2920713  57.9665487  41.6707298  69.5511716  59.1143926  41.0185015
  77.4859036  66.8097970  42.9687699  77.0422890  66.0234348  42.6508604
  78.1476250  66.9977120  42.3031590  72.2446157  68.3393771  37.4948378
  72.7953582  68.2110835  36.7225372  71.4057633  68.6388660  37.1443271
  79.5840274  67.0900770  40.9969101  79.5658749  67.9109651  40.5049370
  80.5060194  66.9654845  41.2219242  76.0413328  64.6044899  41.8392609
  76.5741665  63.8433187  41.6091917  75.5127409  64.3118551  42.5816764
  79.2083023  49.7104965  37.3686251  78.8647293  50.6006607  37.2925361
  79.5761986  49.5206623  36.5055836  67.2768874  62.0338496  30.1874853
  68.1144096  62.4435504  29.9708561  67.4547142  61.0937938  30.1575047
  79.1733306  59.7013576  25.8758686  78.6579929  60.4718181  26.1147073
  78.9010614  59.0278712  26.4991747  76.7580417  54.5463277  30.9343924
  75.9022013  54.1570127  30.7549563  77.1707369  54.6255238  30.0743710
  78.2879564  52.0809620  35.3335484  77.7844359  52.0439755  34.5203289
  78.5810170  52.9902363  35.3932141  74.5322449  52.1648350  34.3401666
  75.3975446  51.9691159  33.9807555  74.5999958  51.9358702  35.2671023
  84.1467580  62.4545931  27.8111859  83.3697023  62.1157090  27.3667022
  84.8259061  62.4598554  27.1366824  78.9619609  57.5740668  27.7018467
  78.6569745  57.8886818  28.5528610  79.9150051  57.6522088  27.7445800
  77.4066041  63.7330892  29.3511421  76.8787403  62.9983651  29.0384659
  76.9053544  64.5105568  29.1051389  82.3858887  61.9279912  34.4678467
  81.7282561  62.6179174  34.5558596  83.1899286  62.3176344  34.8112454
  72.1384769  54.3950558  31.7118033  72.7128520  54.1725739  30.9791226
  72.7255751  54.4639252  32.4646634  81.1964346  60.2824285  32.5182409
  81.7096228  60.9154277  33.0204119  81.8465570  59.6825480  32.1525769
  72.4654356  56.4255019  25.7313918  71.6291668  56.7629706  26.0523193
  72.3259125  56.2903999  24.7941055  74.4407436  51.2691807  30.4393102
  73.7871849  50.9540824  29.8149717  74.3987910  50.6467547  31.1652925
  75.5518641  61.5511102  22.3546394  74.6445703  61.3200355  22.5537543
  76.0489673  60.7548721  22.5420376  78.4586720  70.2608609  25.2743080
  77.7848419  70.5640306  25.8828038  78.8452542  71.0637689  24.9248537
  77.6745177  57.7573740  34.7640750  76.7567738  57.9788687  34.6062438
  78.0905320  57.8320051  33.9052457  78.4580224  59.1565156  29.8943430
  79.2052043  59.6686553  29.5850552  78.7271814  58.8349209  30.7547824
  76.7306875  61.6523697  26.8770384  75.8218094  61.3682730  26.9742854
  76.7601958  62.0722775  26.0173691  81.9626142  65.2630286  30.6461552
  81.5088469  64.4221196  30.7026742  81.3320109  65.8991685  30.9836332
  80.9059062  56.1922272  31.8762219  80.1681818  55.6799659  32.2072462
  81.1585835  55.7522654  31.0645496  80.4059081  67.1006783  31.5811370
  80.6982056  67.6611840  30.8623736  80.9157702  67.3935344  32.3364529
  81.0070689  48.9698524  32.4703989  81.3129566  48.1095888  32.1829904
  81.7323294  49.5616145  32.2702982  67.2995045  59.3729211  30.8585586
  67.1019445  58.7798572  30.1336653  66.7441709  59.0681421  31.5761525
  75.2791769  59.2652317  32.9780180  75.3340378  58.3126154  32.9022656
  74.4682971  59.4211756  33.4621478  76.4282962  63.1932440  24.2158463
  75.9902392  62.4768299  23.7564100  77.1693403  63.4208555  23.6543554
  73.2184129  57.8829377  30.7370558  72.4051994  58.1823548  31.1435751
  73.7143123  57.4885066  31.4545041  75.3692706  67.8787134  32.6704823
  75.3268885  68.1047980  31.7413355  76.2855405  67.6450509  32.8190624
  78.8158340  58.3471202  39.5685452  79.1707728  58.5742675  40.4279918
  79.4630471  58.6789578  38.9462708  84.5456077  61.4689637  30.2734781
  84.4073976  61.6591233  29.3455971  84.1892296  62.2309020  30.7302833
  72.7098203  55.4547733  36.3531793  73.3497583  55.3136492  35.6554757
  71.8775734  55.1682246  35.9770395  84.5725457  63.5366164  35.2846053
  85.0061963  63.4441454  36.1329107  85.2857037  63.5123665  34.6466069
  73.4858507  64.7550163  32.4666786  74.2799106  64.2600483  32.2649361
  72.7750200  64.2268026  32.1034491  78.3053352  67.1368259  36.8179153
  78.3590374  67.7059195  37.5856869  77.4368133  67.3070144  36.4533191
  69.7941271  58.8993245  28.5426539  68.8638859  58.8377700  28.7596501
  69.8898743  58.3769198  27.7463180  69.7126820  55.4248058  31.1304780
  69.9733637  56.3393391  31.0213941  70.5343992  54.9572500  31.2801393
  71.1851745  56.8385815  38.3003605  71.8574798  56.6303177  37.6516254
  70.3581532  56.6407901  37.8608837  85.4341006  63.5789865  37.8178938
  85.6276896  64.4835676  38.0638213  85.3341624  63.1197284  38.6517523
  77.0877317  53.4647756  40.3169266  76.4405232  54.1637705  40.2233742
  77.8578332  53.8983900  40.6845514  80.4956115  63.7296608  43.3919819
  80.3441621  63.5007160  42.4749903  80.4860794  64.6867209  43.4051164
  77.2641451  61.3028521  38.3766085  78.1933511  61.4539680  38.2035053
  76.8432481  61.3912541  37.5214732  76.0629783  65.3279185  36.1464623
  75.9240869  64.9597969  37.0190561  75.2744379  65.8426824  35.9748581
  76.6577935  70.4288282  27.4890160  76.8329691  69.9576325  28.3035782
  75.9710723  71.0554048  27.7171420  77.6134998  64.7060788  33.5353461
  77.2784831  64.6661558  34.4311111  77.1138944  64.0405504  33.0623871
  71.5879242  60.1128418  39.0606042  71.4499040  59.3808657  39.6617581
  72.4984166  60.0237318  38.7790230  80.5494190  62.0516822  23.8090520
  79.9323361  61.3263650  23.7123573  80.0810678  62.8126182  23.4657595
  74.2161543  59.8248377  38.5489722  74.9261161  59.1841569  38.5076340
  74.1730851  60.0761272  39.4715902  82.2048322  66.7615730  41.4696301
  82.1460868  66.0774951  40.8026884  82.6067840  67.5034720  41.0176927
  72.9290477  56.8113595  40.3685361  72.3927834  56.3604333  41.0206957
  72.3407185  56.9459504  39.6255825  71.2239020  73.5777644  34.2630020
  71.4635619  74.2096168  34.9409038  70.3808217  73.2265684  34.5495379
  72.3392736  56.2702246  22.9311825  71.4622202  56.1491047  22.5674071
  72.8150489  55.4788325  22.6790713  82.2065729  64.7255314  39.7010280
  81.3192508  64.3881236  39.8236679  82.7764280  63.9938346  39.9379046
  63.8594876  61.0579406  33.0253332  64.5465916  60.7441136  32.4374347
  63.7043005  61.9620771  32.7520583  68.6629598  55.9469603  37.4538356
  68.5787787  55.3395272  36.7188765  67.8412305  56.4378621  37.4547852
  75.7366882  69.3856767  36.6671524  75.6637054  70.1911738  37.1790828
  75.2944275  69.5848733  35.8419545  75.5256662  68.6228537  30.1774345
  74.7424184  69.1650217  30.2712570  76.2249407  69.1402516  30.5768586
  78.8353312  54.4323166  32.8208551  79.3322012  53.6793129  32.5009621
  78.0640294  54.4687483  32.2551760  86.6883069  60.1363532  34.4626842
  86.6772946  61.0188247  34.0920775  85.8200449  59.7835083  34.2681379
  78.1965566  69.2843601  38.8229682  78.9093538  69.9191066  38.7505584
  77.7055594  69.3807467  38.0069684  79.9183093  63.1894853  30.3946974
  78.9839371  63.3096316  30.2251678  80.0959761  62.2867320  30.1306984
  75.4188281  56.5740549  32.5480235  75.0486068  56.0211590  33.2361141
  75.9147373  55.9698683  31.9955235  83.3055644  59.0312173  30.9297008
  83.7716096  59.8640164  30.8557311  83.7563145  58.5657154  31.6342267
  73.2477479  67.0338044  39.6435253  73.9486939  67.6674527  39.7964647
  72.7772594  67.3752776  38.8830892  81.3731875  65.3755994  27.9283160
  81.6491719  65.2612589  28.8377034  80.5036374  64.9773479  27.8895333
  81.2772307  51.3992760  34.9687909  80.3635387  51.6296987  35.1370116
  81.7065408  51.4831204  35.8201942  81.0478765  59.5882652  37.4687803
  80.3950216  59.8358559  36.8140256  81.4259145  58.7746790  37.1350281
  78.0085939  69.6242345  31.5715974  78.1908334  68.8064001  32.0343726
  78.8318925  69.8410037  31.1340864  78.3428105  68.5510530  28.8331022
  78.8715871  68.0402985  28.2201184  78.6056324  68.2353060  29.6976555
  77.0966338  60.3302463  43.9553841  76.4206975  60.2296592  44.6256216
  77.9193972  60.1741676  44.4189838  68.8445197  66.5674399  36.5766356
  69.4298634  65.8218087  36.7094260  68.6470036  66.8778356  37.4603020
  71.6983853  69.6025647  31.5928798  71.0294228  70.0871774  31.1092838
  71.5596722  69.8494867  32.5072177  63.4362852  59.1379999  35.2970799
  63.4746952  58.6043590  36.0907917  62.9303145  58.6115205  34.6781776
  75.8389121  71.6369390  38.1911457  76.3907429  71.8001012  38.9560542
  76.1795315  72.2273828  37.5191481  70.8153614  53.9844540  38.7933341
  70.8794941  54.8459371  38.3810739  70.7520735  53.3718542  38.0605700
  70.2905887  56.0567673  42.4406376  70.9177926  55.6744750  43.0543900
  69.4333806  55.8381874  42.8062068  80.6899996  66.4630648  44.0460111
  81.2339900  67.0760606  43.5515066  80.1086840  67.0210226  44.5627124
  67.0671430  57.8644102  28.3724730  67.3624871  56.9554780  28.3191784
  66.1659465  57.8431841  28.0505733  78.9757508  69.5851366  35.1775139
  78.8508648  68.7841106  34.6686084  79.6336600  70.0797559  34.6889109
  70.5965677  55.9400098  34.3552279  69.8752262  56.5536066  34.2159752
  71.3858932  56.4757863  34.2768925  81.0392417  67.3860386  36.8054689
  80.0922752  67.2665737  36.7333016  81.3875190  66.4982884  36.8880950
  73.3991990  53.2754525  40.6292931  73.9226392  53.5216821  41.3919240
  73.1804324  54.1074560  40.2096068  68.7959271  55.5458199  28.4964056
  68.4671977  54.6655578  28.3139161  69.1498642  55.4905868  29.3840445
  78.0438850  67.1813102  33.0059041  77.8963813  66.2529809  33.1866611
  78.8692344  67.2033193  32.5216116  71.9101094  55.8331169  28.8639533
  72.2497167  56.3617090  28.1418142  72.3573215  56.1711575  29.6398100
  81.6472972  68.0041661  34.0923914  82.5719520  67.7984522  33.9548365
  81.4788275  67.7558062  35.0013255  74.6044535  54.2168220  38.3142601
  74.2641356  53.4176033  38.7163281  73.8983542  54.5169931  37.7419434
  75.2561007  51.3017532  36.7669924  76.0787076  50.8278010  36.6448815
  75.4999071  52.0808016  37.2668611  73.8969242  54.3305791  27.0632826
  74.6177604  54.7087043  26.5596543  73.2734546  55.0494668  27.1667804
  78.0400364  55.0350940  27.9991158  78.2563979  55.9175578  27.6979986
  77.5594432  54.6437153  27.2696800  72.7799586  57.9936653  34.5761903
  72.6344167  58.3076956  35.4686184  72.3024790  58.6121553  34.0232802
  74.6395969  54.9839201  34.6242792  74.6257538  54.0880294  34.2875090
  75.3568397  54.9909865  35.2581078  76.4922099  55.4176541  36.6695920
  76.2339877  56.3393612  36.6680250  75.9607140  55.0206976  37.3596384
  81.4368288  68.5227328  29.4486005  81.6105166  67.9573751  28.6959858
  81.9297179  69.3228223  29.2665495  67.2545248  60.5341997  37.5149564
  66.7098716  61.3101805  37.6469838  68.1324598  60.8812802  37.3568685
  74.0432865  53.8653581  29.8930363  74.1648776  52.9370227  30.0921250
  73.7534907  53.8792267  28.9808678  76.9124055  51.5508492  33.0297082
  76.9345752  51.6147825  32.0749062  77.3292114  50.7113000  33.2237589
  87.2907679  61.2863751  31.0676305  87.7338825  60.5371076  30.6695428
  86.4134190  61.2773888  30.6850037  82.4243461  67.8394093  26.5482904
  83.1194365  68.4600785  26.7670218  82.7666611  66.9889444  26.8235281
  68.0411270  59.6611894  40.4079721  67.2993006  59.8094529  40.9944351
  67.7204014  59.9220159  39.5446470  84.3234884  65.2893798  28.0770234
  84.8486208  65.6281071  27.3519554  84.2357236  64.3540813  27.8933369
  75.9854933  69.2027872  40.2060111  76.2942059  68.9577019  41.0782811
  76.7830415  69.4074510  39.7178981  76.0075545  71.3565781  32.4365487
  75.5680535  70.8642160  33.1298344  76.7583662  70.8138749  32.1957563
  68.4867884  67.5477322  32.4390116  69.3125903  67.2481094  32.0588759
  68.1361936  66.7784945  32.8879904  73.4549417  66.9003791  34.5087789
  72.8329426  66.2374496  34.2090017  74.1254284  66.9264922  33.8261437
  66.6876489  65.4663649  33.3979049  65.8508397  65.0385823  33.2163050
  66.6600134  65.6596092  34.3349840  73.5273944  55.3785579  44.1020295
  73.5762100  56.2547701  43.7198065  74.0696458  54.8362972  43.5291938
  84.0128790  65.9226702  43.3821432  83.2224334  65.9050841  42.8425932
  83.7762144  66.4614995  44.1370469  84.1326665  62.7719168  40.6954161
  84.1824670  62.6069176  41.6369684  84.0240588  61.9046427  40.3052042
  73.0162924  65.4507714  27.9846250  73.1651044  66.1343178  27.3312922
  73.8229367  65.4312804  28.4995705  81.4230427  58.7550096  42.0113468
  82.3240290  58.6156561  41.7197465  81.4978402  58.9204551  42.9511645
  75.7573233  56.1316951  40.8566654  74.8876542  56.4250517  40.5849242
  75.9932713  56.7157396  41.5773917  85.6344862  65.1916110  40.9396182
  85.3429670  65.5546090  41.7759643  85.0216993  64.4783118  40.7609514
  86.8340544  62.7568989  33.4598753  87.6687435  63.1958794  33.6236313
  86.9699673  62.2807643  32.6406998  83.8832050  60.3148724  39.4076240
  84.3586172  60.5076371  38.5995092  82.9597615  60.3707910  39.1619624
  70.7715557  61.4772891  28.9907319  70.5261599  60.5735221  29.1887529
  70.9411471  61.4790042  28.0486797  78.4612267  52.3496568  38.3732074
  78.9794210  53.0857595  38.0478563  78.1067399  52.6560561  39.2078833
  70.0411204  57.2101249  26.4893480  69.3480449  57.2845604  25.8333516
  69.7962956  56.4461593  27.0114997  78.7124861  48.7696850  33.8932971
  78.9926614  48.1020039  34.5193397  79.4975468  48.9625946  33.3807635
  76.5158329  67.9455844  25.4557997  75.9432296  68.5646031  25.0028469
  77.0891123  68.4955206  25.9897919  82.5833719  57.1914484  37.6404546
  83.5351142  57.2912582  37.6616770  82.4137169  56.3992753  38.1502630
  80.6048098  54.2770068  37.8263947  80.0098031  54.5575080  37.1310435
  80.3197795  54.7663969  38.5980688  79.7355589  68.2292994  26.5866579
  80.6686262  68.1638556  26.7899455  79.6478802  69.0649261  26.1281112
  82.3643606  67.5458865  23.5470527  82.2857237  67.2118728  24.4406285
  83.1853272  68.0380633  23.5461999  85.0621797  60.4120604  36.7546846
  85.0298117  59.4736605  36.9406529  85.6722420  60.4904641  36.0212670
  76.9005128  59.2816657  22.7974050  77.8464232  59.1522865  22.8662468
  76.5219373  58.5431319  23.2743478  85.2116285  57.2031647  36.8005129
  84.6955334  56.4190104  36.6135058  86.0956234  56.8750364  36.9651648
  82.8727012  50.9472663  32.7600941  82.6751833  50.6387751  33.6444273
  83.4826718  51.6734302  32.8898871  90.8798347  61.4736611  35.8952882
  91.6101735  61.2121899  36.4560586  90.2705292  60.7365333  35.9354950
  88.9613644  59.6144473  36.4927334  88.2346807  59.4800438  35.8843825
  88.5460931  59.9221302  37.2984052  76.7843820  63.3334403  44.2574707
  77.7046830  63.5113002  44.4514753  76.7493403  62.3890449  44.1054406
  75.0848045  57.2066633  22.7328935  74.1779500  56.9099746  22.8091648
  75.3624026  56.9096452  21.8663221  66.0025985  58.5272997  33.1827981
  65.6828770  57.6738305  32.8902355  65.4559413  58.7421575  33.9385949
  69.7805893  61.2435438  36.8997488  69.9991903  62.1752546  36.9185522
  70.1931667  60.8843412  37.6852292  76.7010111  51.7503523  28.8873176
  75.8910839  51.4050608  29.2628422  77.3894527  51.4411067  29.4760788
  78.6300659  50.8281570  30.5097473  79.1831697  51.2477023  31.1687496
  78.8670745  49.9017318  30.5520429  74.6533758  56.8168644  46.2900237
  74.5530485  57.7663001  46.2212328  74.4355300  56.4886882  45.4176307
  73.8546829  54.0653569  22.8740914  74.7165993  54.3908467  23.1336731
  74.0397174  53.2785065  22.3613980  65.8714245  62.1475908  35.1521103
  65.1777717  61.7329861  34.6391057  66.6187236  62.1896445  34.5554522
  82.0079466  52.9382095  30.0176137  81.4278135  53.5966899  29.6354189
  81.7415399  52.1159440  29.6063555  80.4583032  52.3387153  32.2197457
  80.9582811  52.4503687  31.4111776  81.1018640  52.0348206  32.8598266
  74.5165028  60.2465782  45.1065298  74.0332110  61.0466143  45.3129187
  74.6025967  60.2573727  44.1532742  67.7850988  62.0794162  33.0287118
  67.7621676  62.1781849  32.0769001  68.0951624  62.9259313  33.3504284
  70.4438366  64.1370317  37.1433732  71.3981619  64.1054259  37.0763664
  70.2450889  63.6760941  37.9583958  71.0337748  62.7071433  39.7104530
  71.8530637  63.2015512  39.7339367  71.3074555  61.7903401  39.6822097
  80.7904344  55.0982185  29.0732485  79.9030199  55.3831836  28.8552680
  81.2058333  54.9375949  28.2259762  84.1418880  55.1228706  32.7886825
  84.9179270  55.6125159  33.0611441  83.4167014  55.5486761  33.2458694
  86.5791439  55.8356326  33.8460765  87.1735930  55.5952062  33.1354073
  86.6518022  55.1163456  34.4734301  68.7988594  69.6789937  34.1603930
  68.6643062  68.9190338  33.5941928  68.3820657  70.4030836  33.6932719
  79.9347557  64.8626860  23.1680505  80.6383408  65.0676863  23.7838161
  79.2110206  65.4303622  23.4329589  80.7645368  60.6136721  29.2882775
  80.7080569  61.0705273  28.4490408  81.3173710  59.8527406  29.1105618
  84.5750174  56.4026453  30.1132895  84.3187108  56.0023089  30.9441103
  83.9503042  57.1170247  29.9883034  88.8862511  59.1422527  32.6204186
  88.3262069  59.2115716  33.3935748  88.2806015  58.9663511  31.9003683
  71.9557720  70.5759254  34.3722373  71.8390104  71.5204686  34.2701063
  71.1350167  70.2732815  34.7608172  81.8434255  65.3009389  25.2178965
  82.6779859  64.8690588  25.0356440  81.6818598  65.1291403  26.1455860
  81.4980147  61.8041503  26.5835305  81.4428951  61.6385774  25.6423749
  80.8726202  62.5117536  26.7397494  78.8126054  64.1090415  45.9088867
  79.6817214  64.2831067  45.5475502  78.3332806  64.9284831  45.7864597
  74.8076272  51.3049612  26.1620623  74.7954942  52.2491452  26.3188894
  75.6999694  51.1219757  25.8680084  72.9812234  71.2287516  37.5878301
  73.8839481  71.2611126  37.9044796  72.7549604  70.2987966  37.6024637
  74.7365836  69.9818502  34.2488380  73.7861467  69.9820364  34.1352752
  75.0398323  69.2351237  33.7324414  78.6228392  47.8992388  30.4166560
  77.8560788  47.3450875  30.5623242  79.0339097  47.9714257  31.2780711
  70.6270153  54.1877184  44.5071741  71.4901615  53.8313989  44.7175066
  70.0535564  53.8491079  45.1947145  90.4718530  75.8179040  35.3134142
  91.1096940  75.6985788  34.6097482  90.3539373  76.7659884  35.3722094
  87.2808236  75.7706469  35.2495667  86.9426748  75.6547533  34.3616202
  88.1498004  75.3697634  35.2296673  83.1395052  77.6241945  31.2392558
  82.5759917  77.5331882  30.4708845  83.0247447  76.8041849  31.7195050
  87.7628019  76.9241320  41.2081872  87.7516660  76.5294119  40.3362376
  87.9248659  76.1907393  41.8015644  80.6859484  79.1193137  34.0776778
  81.4780776  78.7783961  33.6623077  80.9256134  79.2288112  34.9978931
  88.7194611  81.2912913  26.5507023  88.0682590  81.8766993  26.1641036
  89.5138973  81.8219108  26.6102060  82.6450238  78.3802050  26.9494157
  83.4181114  77.8331037  26.8107033  82.9975637  79.2446299  27.1608618
  84.4835280  79.7078432  40.1561056  84.1925146  80.6124063  40.0407723
  85.1192265  79.7494960  40.8705126  85.4091487  77.0855281  36.7462416
  86.0055059  76.8611303  36.0319379  85.4666459  76.3440026  37.3487864
  84.9816516  74.5394716  24.5812607  85.2342036  74.0176237  23.8196070
  84.0441075  74.3760861  24.6839290  90.0259798  73.5430494  32.3887350
  90.8122888  73.1249917  32.0377767  90.2898503  74.4476587  32.5568999
  90.1969876  78.9803345  27.0876007  89.5615709  79.0537971  27.7996912
  89.8667282  79.5696943  26.4095086  95.4268226  73.4805728  33.2920329
  96.1593397  72.9104944  33.5258158  94.6707581  73.0927328  33.7326834
  84.7012804  76.4422822  26.7836982  84.5849062  75.7667725  27.4518066
  84.8115064  75.9555196  25.9669135  87.0444345  75.9032969  30.4883671
  86.6802552  75.3763590  31.1996593  87.9011461  75.5131438  30.3150156
  92.9493646  67.1927302  37.7514937  92.6176971  68.0622713  37.5276152
  92.3539259  66.8763586  38.4308968  86.6849832  70.9322869  25.4845020
  86.8524235  71.8003105  25.8515491  86.4947001  71.0950150  24.5606309
  89.4425165  79.3939848  37.1510850  89.1425889  80.2964886  37.0426657
  89.0976225  79.1272031  38.0032003  82.8937647  75.8453644  33.1847554
  81.9688143  75.7129859  33.3925246  83.1422060  76.6247864  33.6817497
  92.8422309  71.9122388  34.8308287  91.9339187  71.8437796  34.5367048
  92.7909905  72.3894333  35.6590113  86.6639053  73.3880526  26.4691686
  86.5438678  73.8337577  27.3077167  85.9691641  73.7365844  25.9105225
  80.2546458  75.4886918  34.0191343  80.3838839  75.7421397  34.9330755
  79.5743909  76.0814626  33.6995999  84.4245945  86.1584168  30.1181818
  84.3469975  87.1091993  30.1970298  83.8207589  85.8130040  30.7756744
  86.9163175  73.3312033  42.7743185  86.1396509  73.8905954  42.7646049
  87.5553738  73.8168816  43.2958055  94.7083956  70.1138826  36.6086161
  94.0658336  70.4071359  35.9625956  94.2038884  69.9991747  37.4139358
  92.3624119  73.8601999  27.2972020  93.2741975  74.0929386  27.1219718
  91.8533766  74.4439044  26.7347099  85.1709547  76.1397487  42.3361152
  85.9124232  76.6782531  42.0595975  84.4646533  76.7663776  42.4932703
  90.6464887  78.2826627  40.9333313  91.0548243  77.8409038  40.1887945
  89.9242148  77.7079255  41.1867506  86.9995957  73.2199234  38.3066870
  87.8457152  73.6438648  38.4501519  86.9394595  72.5632858  39.0005433
  90.9693702  78.8427818  34.6885602  90.3402564  79.0073532  33.9861670
  90.5819364  79.2569427  35.4596566  94.8482933  79.7782256  32.0429966
  94.1633972  80.1581157  31.4926999  94.9326783  80.3877582  32.7761913
  90.1495402  70.8803602  39.9648044  89.9056334  71.6345663  39.4282319
  90.4255333  71.2588950  40.7995291  92.1033865  77.4242215  38.6425309
  92.3150760  78.0673975  37.9659690  92.0563613  76.5904531  38.1747239
  89.7060094  70.0360035  35.5461881  88.8444573  70.3341289  35.8378619
  89.7322529  70.2530434  34.6142914  86.5221663  78.5802226  31.9535687
  86.9860009  78.8589929  31.1640310  86.2578462  77.6785671  31.7708778
  83.4145745  78.1273707  34.8915450  83.9847102  78.5560976  34.2532935
  84.0053856  77.8456292  35.5899636  85.4590550  74.7025378  28.7625252
  86.1614593  75.1546422  29.2299179  85.1271178  74.0609197  29.3905145
  83.9070911  73.2937135  43.1376462  83.2769572  73.9753416  43.3711858
  83.8006999  73.1820217  42.1929600  79.2015883  72.9608931  34.0642386
  78.4114937  73.2166460  33.5882496  79.6927131  73.7757269  34.1694426
  93.2179693  80.3014170  36.8147667  94.0397137  79.8994357  36.5330348
  93.2142096  80.1982404  37.7663782  81.1530629  73.3253510  31.0225862
  80.3561792  73.4372204  31.5409358  80.9256221  73.6640162  30.1566753
  86.9836296  79.8498213  38.9708377  87.0480729  80.3118621  39.8066549
  86.2747220  79.2195578  39.0990687  77.4853586  73.2139421  36.4957377
  77.7361625  74.0986431  36.7614952  78.0213135  73.0344023  35.7232468
 101.3085686  76.6452919  33.1632638 100.5549394  76.0760317  33.0076642
 101.4433227  76.6115583  34.1103273  86.6984314  81.5166321  28.8387357
  86.5629989  82.3617857  29.2672205  87.2394127  81.7185599  28.0753291
  83.1851654  67.5957901  45.5001713  82.7918599  67.0424099  46.1749357
  84.0017794  67.9068479  45.8908230  80.1513712  79.0341759  29.4115282
  80.6638232  79.8285009  29.5620847  80.8036424  78.3368049  29.3448884
  81.9608596  82.1507515  31.4938036  82.1375225  83.0725480  31.3059020
  82.7565430  81.8365934  31.9232415  86.1019615  69.0115780  43.0921969
  86.8429328  69.6122933  43.0126432  86.3337538  68.2693418  42.5340012
  81.2460953  74.1972147  41.3700199  81.1314468  73.2957404  41.6707298
  80.3905471  74.4435844  41.0185015  88.3252791  82.1389887  42.9687699
  87.8816645  81.3526266  42.6508604  88.9870004  82.3269038  42.3031590
  83.0839912  83.6685689  37.4948378  83.6347337  83.5402752  36.7225372
  82.2451388  83.9680578  37.1443271  90.4234029  82.4192687  40.9969101
  90.4052504  83.2401568  40.5049370  91.3453949  82.2946763  41.2219242
  86.8807083  79.9336817  41.8392609  87.4135420  79.1725105  41.6091917
  86.3521164  79.6410469  42.5816764  90.0476778  65.0396883  37.3686251
  89.7041047  65.9298524  37.2925361  90.4155740  64.8498540  36.5055836
  78.1162628  77.3630413  30.1874853  78.9537850  77.7727422  29.9708561
  78.2940896  76.4229855  30.1575047  90.0127060  75.0305494  25.8758686
  89.4973684  75.8010099  26.1147073  89.7404369  74.3570630  26.4991747
  87.5974171  69.8755195  30.9343924  86.7415768  69.4862045  30.7549563
  88.0101123  69.9547156  30.0743710  89.1273318  67.4101538  35.3335484
  88.6238114  67.3731673  34.5203289  89.4203925  68.3194281  35.3932141
  85.3716204  67.4940268  34.3401666  86.2369201  67.2983076  33.9807555
  85.4393713  67.2650619  35.2671023  94.9861335  77.7837849  27.8111859
  94.2090777  77.4449008  27.3667022  95.6652816  77.7890472  27.1366824
  89.8013364  72.9032586  27.7018467  89.4963499  73.2178735  28.5528610
  90.7543806  72.9814006  27.7445800  88.2459795  79.0622809  29.3511421
  87.7181157  78.3275569  29.0384659  87.7447298  79.8397486  29.1051389
  93.2252641  77.2571830  34.4678467  92.5676316  77.9471091  34.5558596
  94.0293041  77.6468262  34.8112454  82.9778523  69.7242476  31.7118033
  83.5522275  69.5017657  30.9791226  83.5649505  69.7931170  32.4646634
  92.0358100  75.6116203  32.5182409  92.5489982  76.2446194  33.0204119
  92.6859324  75.0117398  32.1525769  83.3048110  71.7546937  25.7313918
  82.4685422  72.0921623  26.0523193  83.1652880  71.6195916  24.7941055
  85.2801191  66.5983725  30.4393102  84.6265603  66.2832742  29.8149717
  85.2381665  65.9759465  31.1652925  86.3912396  76.8803020  22.3546394
  85.4839457  76.6492273  22.5537543  86.8883428  76.0840639  22.5420376
  89.2980475  85.5900527  25.2743080  88.6242173  85.8932224  25.8828038
  89.6846296  86.3929607  24.9248537  88.5138931  73.0865658  34.7640750
  87.5961492  73.3080605  34.6062438  88.9299075  73.1611969  33.9052457
  89.2973979  74.4857074  29.8943430  90.0445798  74.9978471  29.5850552
  89.5665568  74.1641126  30.7547824  87.5700629  76.9815614  26.8770384
  86.6611848  76.6974647  26.9742854  87.5995713  77.4014693  26.0173691
  92.8019896  80.5922204  30.6461552  92.3482224  79.7513114  30.7026742
  92.1713863  81.2283602  30.9836332  91.7452816  71.5214190  31.8762219
  91.0075573  71.0091576  32.2072462  91.9979590  71.0814572  31.0645496
  91.2452836  82.4298701  31.5811370  91.5375810  82.9903758  30.8623736
  91.7551456  82.7227262  32.3364529  91.8464443  64.2990442  32.4703989
  92.1523320  63.4387805  32.1829904  92.5717048  64.8908062  32.2702982
  78.1388799  74.7021129  30.8585586  77.9413199  74.1090489  30.1336653
  77.5835463  74.3973339  31.5761525  86.1185523  74.5944235  32.9780180
  86.1734133  73.6418071  32.9022656  85.3076725  74.7503674  33.4621478
  87.2676717  78.5224358  24.2158463  86.8296147  77.8060217  23.7564100
  88.0087158  78.7500473  23.6543554  84.0577883  73.2121295  30.7370558
  83.2445749  73.5115465  31.1435751  84.5536877  72.8176984  31.4545041
  86.2086461  83.2079052  32.6704823  86.1662640  83.4339898  31.7413355
  87.1249160  82.9742426  32.8190624  89.6552095  73.6763119  39.5685452
  90.0101482  73.9034592  40.4279918  90.3024226  74.0081496  38.9462708
  95.3849832  76.7981555  30.2734781  95.2467730  76.9883151  29.3455971
  95.0286050  77.5600938  30.7302833  83.5491958  70.7839650  36.3531793
  84.1891337  70.6428409  35.6554757  82.7169488  70.4974164  35.9770395
  95.4119211  78.8658082  35.2846053  95.8455718  78.7733371  36.1329107
  96.1250792  78.8415583  34.6466069  84.3252262  80.0842081  32.4666786
  85.1192860  79.5892401  32.2649361  83.6143954  79.5559944  32.1034491
  89.1447106  82.4660176  36.8179153  89.1984128  83.0351113  37.5856869
  88.2761888  82.6362061  36.4533191  80.6335025  74.2285162  28.5426539
  79.7032613  74.1669618  28.7596501  80.7292497  73.7061115  27.7463180
  80.5520574  70.7539975  31.1304780  80.8127391  71.6685309  31.0213941
  81.3737747  70.2864418  31.2801393  82.0245500  72.1677732  38.3003605
  82.6968553  71.9595095  37.6516254  81.1975286  71.9699818  37.8608837
  96.2734761  78.9081783  37.8178938  96.4670651  79.8127593  38.0638213
  96.1735379  78.4489202  38.6517523  87.9271072  68.7939673  40.3169266
  87.2798987  69.4929623  40.2233742  88.6972087  69.2275817  40.6845514
  91.3349869  79.0588526  43.3919819  91.1835376  78.8299077  42.4749903
  91.3254549  80.0159127  43.4051164  88.1035206  76.6320438  38.3766085
  89.0327266  76.7831598  38.2035053  87.6826236  76.7204459  37.5214732
  86.9023538  80.6571103  36.1464623  86.7634623  80.2889887  37.0190561
  86.1138134  81.1718742  35.9748581  87.4971690  85.7580199  27.4890160
  87.6723445  85.2868242  28.3035782  86.8104478  86.3845965  27.7171420
  88.4528753  80.0352705  33.5353461  88.1178585  79.9953475  34.4311111
  87.9532699  79.3697421  33.0623871  82.4272997  75.4420335  39.0606042
  82.2892795  74.7100574  39.6617581  83.3377920  75.3529236  38.7790230
  91.3887944  77.3808740  23.8090520  90.7717115  76.6555568  23.7123573
  90.9204433  78.1418100  23.4657595  85.0555297  75.1540295  38.5489722
  85.7654916  74.5133487  38.5076340  85.0124606  75.4053190  39.4715902
  93.0442076  82.0907648  41.4696301  92.9854622  81.4066868  40.8026884
  93.4461595  82.8326638  41.0176927  83.7684231  72.1405513  40.3685361
  83.2321588  71.6896251  41.0206957  83.1800940  72.2751422  39.6255825
  82.0632775  88.9069562  34.2630020  82.3029373  89.5388086  34.9409038
  81.2201971  88.5557602  34.5495379  83.1786490  71.5994164  22.9311825
  82.3015957  71.4782965  22.5674071  83.6544243  70.8080242  22.6790713
  93.0459483  80.0547232  39.7010280  92.1586262  79.7173154  39.8236679
  93.6158034  79.3230263  39.9379046  74.6988631  76.3871324  33.0253332
  75.3859670  76.0733054  32.4374347  74.5436759  77.2912688  32.7520583
  79.5023353  71.2761520  37.4538356  79.4181541  70.6687190  36.7188765
  78.6806059  71.7670539  37.4547852  86.5760637  84.7148684  36.6671524
  86.5030808  85.5203656  37.1790828  86.1338030  84.9140650  35.8419545
  86.3650416  83.9520454  30.1774345  85.5817938  84.4942135  30.2712570
  87.0643162  84.4694434  30.5768586  89.6747067  69.7615084  32.8208551
  90.1715766  69.0085046  32.5009621  88.9034048  69.7979401  32.2551760
  97.5276824  75.4655449  34.4626842  97.5166700  76.3480165  34.0920775
  96.6594203  75.1127000  34.2681379  89.0359320  84.6135518  38.8229682
  89.7487293  85.2482983  38.7505584  88.5449349  84.7099384  38.0069684
  90.7576847  78.5186771  30.3946974  89.8233126  78.6388234  30.2251678
  90.9353516  77.6159238  30.1306984  86.2582035  71.9032467  32.5480235
  85.8879823  71.3503507  33.2361141  86.7541128  71.2990600  31.9955235
  94.1449399  74.3604090  30.9297008  94.6109851  75.1932082  30.8557311
  94.5956899  73.8949072  31.6342267  84.0871234  82.3629962  39.6435253
  84.7880693  82.9966445  39.7964647  83.6166349  82.7044693  38.8830892
  92.2125630  80.7047912  27.9283160  92.4885474  80.5904506  28.8377034
  91.3430128  80.3065397  27.8895333  92.1166061  66.7284677  34.9687909
  91.2029141  66.9588904  35.1370116  92.5459163  66.8123121  35.8201942
  91.8872520  74.9174569  37.4687803  91.2343970  75.1650477  36.8140256
  92.2652900  74.1038708  37.1350281  88.8479694  84.9534263  31.5715974
  89.0302088  84.1355918  32.0343726  89.6712680  85.1701955  31.1340864
  89.1821859  83.8802448  28.8331022  89.7109626  83.3694902  28.2201184
  89.4450079  83.5644978  29.6976555  87.9360093  75.6594380  43.9553841
  87.2600730  75.5588510  44.6256216  88.7587727  75.5033594  44.4189838
  79.6838952  81.8966317  36.5766356  80.2692389  81.1510005  36.7094260
  79.4863790  82.2070274  37.4603020  82.5377607  84.9317564  31.5928798
  81.8687982  85.4163692  31.1092838  82.3990477  85.1786785  32.5072177
  74.2756607  74.4671917  35.2970799  74.3140706  73.9335508  36.0907917
  73.7696899  73.9407123  34.6781776  86.6782876  86.9661308  38.1911457
  87.2301184  87.1292929  38.9560542  87.0189069  87.5565746  37.5191481
  81.6547369  69.3136458  38.7933341  81.7188695  70.1751289  38.3810739
  81.5914489  68.7010459  38.0605700  81.1299641  71.3859590  42.4406376
  81.7571680  71.0036668  43.0543900  80.2727560  71.1673792  42.8062068
  91.5293750  81.7922565  44.0460111  92.0733654  82.4052524  43.5515066
  90.9480595  82.3502144  44.5627124  77.9065184  73.1936019  28.3724730
  78.2018625  72.2846698  28.3191784  77.0053220  73.1723759  28.0505733
  89.8151263  84.9143283  35.1775139  89.6902402  84.1133023  34.6686084
  90.4730354  85.4089477  34.6889109  81.4359431  71.2692016  34.3552279
  80.7146017  71.8827984  34.2159752  82.2252687  71.8049781  34.2768925
  91.8786171  82.7152303  36.8054689  90.9316507  82.5957655  36.7333016
  92.2268944  81.8274802  36.8880950  84.2385745  68.6046442  40.6292931
  84.7620147  68.8508739  41.3919240  84.0198078  69.4366477  40.2096068
  79.6353026  70.8750117  28.4964056  79.3065732  69.9947496  28.3139161
  79.9892397  70.8197786  29.3840445  88.8832605  82.5105020  33.0059041
  88.7357567  81.5821727  33.1866611  89.7086098  82.5325110  32.5216116
  82.7494849  71.1623087  28.8639533  83.0890921  71.6909008  28.1418142
  83.1966969  71.5003493  29.6398100  92.4866727  83.3333578  34.0923914
  93.4113274  83.1276440  33.9548365  92.3182030  83.0849980  35.0013255
  85.4438290  69.5460138  38.3142601  85.1035110  68.7467951  38.7163281
  84.7377296  69.8461848  37.7419434  86.0954762  66.6309450  36.7669924
  86.9180831  66.1569928  36.6448815  86.3392825  67.4099934  37.2668611
  84.7362996  69.6597708  27.0632826  85.4571359  70.0378961  26.5596543
  84.1128300  70.3786585  27.1667804  88.8794119  70.3642857  27.9991158
  89.0957733  71.2467495  27.6979986  88.3988186  69.9729071  27.2696800
  83.6193340  73.3228571  34.5761903  83.4737921  73.6368874  35.4686184
  83.1418544  73.9413471  34.0232802  85.4789723  70.3131119  34.6242792
  85.4651292  69.4172212  34.2875090  86.1962151  70.3201782  35.2581078
  87.3315854  70.7468459  36.6695920  87.0733632  71.6685529  36.6680250
  86.8000894  70.3498893  37.3596384  92.2762043  83.8519246  29.4486005
  92.4498920  83.2865668  28.6959858  92.7690934  84.6520141  29.2665495
  78.0939003  75.8633915  37.5149564  77.5492471  76.6393723  37.6469838
  78.9718352  76.2104719  37.3568685  84.8826619  69.1945499  29.8930363
  85.0042530  68.2662145  30.0921250  84.5928662  69.2084185  28.9808678
  87.7517810  66.8800409  33.0297082  87.7739506  66.9439742  32.0749062
  88.1685869  66.0404918  33.2237589  98.1301434  76.6155669  31.0676305
  98.5732580  75.8662994  30.6695428  97.2527944  76.6065805  30.6850037
  93.2637215  83.1686010  26.5482904  93.9588120  83.7892703  26.7670218
  93.6060365  82.3181362  26.8235281  78.8805024  74.9903811  40.4079721
  78.1386760  75.1386447  40.9944351  78.5597769  75.2512077  39.5446470
  95.1628638  80.6185716  28.0770234  95.6879962  80.9572989  27.3519554
  95.0750991  79.6832731  27.8933369  86.8248687  84.5319789  40.2060111
  87.1335813  84.2868936  41.0782811  87.6224169  84.7366428  39.7178981
  86.8469299  86.6857699  32.4365487  86.4074289  86.1934078  33.1298344
  87.5977416  86.1430667  32.1957563  79.3261638  82.8769240  32.4390116
  80.1519658  82.5773012  32.0588759  78.9755690  82.1076862  32.8879904
  84.2943171  82.2295708  34.5087789  83.6723181  81.5666413  34.2090017
  84.9648038  82.2556840  33.8261437  77.5270243  80.7955566  33.3979049
  76.6902151  80.3677741  33.2163050  77.4993889  80.9888010  34.3349840
  84.3667699  70.7077496  44.1020295  84.4155854  71.5839619  43.7198065
  84.9090213  70.1654889  43.5291938  94.8522544  81.2518619  43.3821432
  94.0618088  81.2342758  42.8425932  94.6155899  81.7906913  44.1370469
  94.9720419  78.1011086  40.6954161  95.0218424  77.9361093  41.6369684
  94.8634343  77.2338345  40.3052042  83.8556678  80.7799632  27.9846250
  84.0044799  81.4635096  27.3312922  84.6623122  80.7604722  28.4995705
  92.2624182  74.0842014  42.0113468  93.1634045  73.9448479  41.7197465
  92.3372156  74.2496469  42.9511645  86.5966987  71.4608869  40.8566654
  85.7270297  71.7542435  40.5849242  86.8326468  72.0449314  41.5773917
  96.4738616  80.5208027  40.9396182  96.1823425  80.8838008  41.7759643
  95.8610748  79.8075036  40.7609514  97.6734299  78.0860907  33.4598753
  98.5081190  78.5250711  33.6236313  97.8093427  77.6099560  32.6406998
  94.7225805  75.6440642  39.4076240  95.1979926  75.8368288  38.5995092
  93.7991370  75.6999828  39.1619624  81.6109311  76.8064809  28.9907319
  81.3655353  75.9027139  29.1887529  81.7805226  76.8081960  28.0486797
  89.3006021  67.6788486  38.3732074  89.8187965  68.4149512  38.0478563
  88.9461154  67.9852479  39.2078833  80.8804959  72.5393167  26.4893480
  80.1874204  72.6137522  25.8333516  80.6356711  71.7753510  27.0114997
  89.5518615  64.0988768  33.8932971  89.8320369  63.4311957  34.5193397
  90.3369222  64.2917864  33.3807635  87.3552084  83.2747762  25.4557997
  86.7826051  83.8937949  25.0028469  87.9284877  83.8247124  25.9897919
  93.4227474  72.5206402  37.6404546  94.3744896  72.6204500  37.6616770
  93.2530924  71.7284671  38.1502630  91.4441853  69.6061985  37.8263947
  90.8491785  69.8866998  37.1310435  91.1591550  70.0955886  38.5980688
  90.5749343  83.5584912  26.5866579  91.5080017  83.4930474  26.7899455
  90.4872556  84.3941179  26.1281112  93.2037360  82.8750782  23.5470527
  93.1250992  82.5410646  24.4406285  94.0247027  83.3672550  23.5461999
  95.9015551  75.7412522  36.7546846  95.8691871  74.8028522  36.9406529
  96.5116175  75.8196558  36.0212670  87.7398882  74.6108575  22.7974050
  88.6857987  74.4814783  22.8662468  87.3613127  73.8723237  23.2743478
  96.0510040  72.5323565  36.8005129  95.5349088  71.7482022  36.6135058
  96.9349988  72.2042282  36.9651648  93.7120767  66.2764581  32.7600941
  93.5145588  65.9679669  33.6444273  94.3220472  67.0026220  32.8898871
 101.7192101  76.8028529  35.8952882 102.4495490  76.5413817  36.4560586
 101.1099047  76.0657251  35.9354950  99.8007398  74.9436391  36.4927334
  99.0740562  74.8092356  35.8843825  99.3854685  75.2513220  37.2984052
  87.6237575  78.6626321  44.2574707  88.5440584  78.8404920  44.4514753
  87.5887158  77.7182366  44.1054406  85.9241799  72.5358551  22.7328935
  85.0173255  72.2391664  22.8091648  86.2017780  72.2388369  21.8663221
  76.8419740  73.8564915  33.1827981  76.5222524  73.0030223  32.8902355
  76.2953168  74.0713493  33.9385949  80.6199647  76.5727356  36.8997488
  80.8385657  77.5044463  36.9185522  81.0325421  76.2135330  37.6852292
  87.5403865  67.0795441  28.8873176  86.7304593  66.7342526  29.2628422
  88.2288282  66.7702985  29.4760788  89.4694413  66.1573488  30.5097473
  90.0225452  66.5768941  31.1687496  89.7064500  65.2309236  30.5520429
  85.4927513  72.1460561  46.2900237  85.3924239  73.0954918  46.2212328
  85.2749055  71.8178800  45.4176307  84.6940584  69.3945486  22.8740914
  85.5559748  69.7200385  23.1336731  84.8790928  68.6076982  22.3613980
  76.7108000  77.4767826  35.1521103  76.0171471  77.0621779  34.6391057
  77.4580991  77.5188363  34.5554522  92.8473220  68.2674013  30.0176137
  92.2671889  68.9258817  29.6354189  92.5809153  67.4451357  29.6063555
  91.2976787  67.6679071  32.2197457  91.7976565  67.7795605  31.4111776
  91.9412395  67.3640123  32.8598266  85.3558783  75.5757700  45.1065298
  84.8725864  76.3758060  45.3129187  85.4419722  75.5865645  44.1532742
  78.6244742  77.4086080  33.0287118  78.6015430  77.5073767  32.0769001
  78.9345379  78.2551231  33.3504284  81.2832120  79.4662235  37.1433732
  82.2375374  79.4346177  37.0763664  81.0844644  79.0052859  37.9583958
  81.8731502  78.0363351  39.7104530  82.6924391  78.5307430  39.7339367
  82.1468310  77.1195319  39.6822097  91.6298098  70.4274103  29.0732485
  90.7423953  70.7123754  28.8552680  92.0452088  70.2667867  28.2259762
  94.9812635  70.4520624  32.7886825  95.7573025  70.9417077  33.0611441
  94.2560769  70.8778678  33.2458694  97.4185193  71.1648243  33.8460765
  98.0129684  70.9243979  33.1354073  97.4911777  70.4455374  34.4734301
  79.6382349  85.0081854  34.1603930  79.5036817  84.2482255  33.5941928
  79.2214411  85.7322754  33.6932719  90.7741312  80.1918778  23.1680505
  91.4777162  80.3968780  23.7838161  90.0503961  80.7595540  23.4329589
  91.6039122  75.9428639  29.2882775  91.5474324  76.3997191  28.4490408
  92.1567465  75.1819324  29.1105618  95.4143928  71.7318371  30.1132895
  95.1580862  71.3315007  30.9441103  94.7896796  72.4462165  29.9883034
  99.7256266  74.4714444  32.6204186  99.1655824  74.5407634  33.3935748
  99.1199769  74.2955429  31.9003683  82.7951475  85.9051171  34.3722373
  82.6783859  86.8496604  34.2701063  81.9743921  85.6024733  34.7608172
  92.6828009  80.6301307  25.2178965  93.5173613  80.1982506  25.0356440
  92.5212352  80.4583321  26.1455860  92.3373902  77.1333420  26.5835305
  92.2822705  76.9677692  25.6423749  91.7119957  77.8409453  26.7397494
  77.1266416  72.3701485  40.4096727  77.7725280  71.8600439  40.8983952
  76.9183568  73.1070166  40.9840152  89.6519809  79.4382332  45.9088867
  90.5210968  79.6122985  45.5475502  89.1726560  80.2576749  45.7864597
  85.6470027  66.6341529  26.1620623  85.6348697  67.5783369  26.3188894
  86.5393449  66.4511675  25.8680084  83.8205989  86.5579433  37.5878301
  84.7233236  86.5903043  37.9044796  83.5943359  85.6279884  37.6024637
  85.5759591  85.3110420  34.2488380  84.6255222  85.3112281  34.1352752
  85.8792077  84.5643154  33.7324414  89.4622146  63.2284306  30.4166560
  88.6954542  62.6742793  30.5623242  89.8732851  63.3006175  31.2780711
  81.4663907  69.5169102  44.5071741  82.3295369  69.1605907  44.7175066
  80.8929318  69.1782997  45.1947145 101.3112284  91.1470958  35.3134142
 101.9490694  91.0277706  34.6097482 101.1933127  92.0951802  35.3722094
  98.1201991  91.0998386  35.2495667  97.7820502  90.9839451  34.3616202
  98.9891759  90.6989551  35.2296673  93.9788806  92.9533863  31.2392558
  93.4153672  92.8623800  30.4708845  93.8641201  92.1333767  31.7195050
  98.6021774  92.2533238  41.2081872  98.5910414  91.8586036  40.3362376
  98.7642413  91.5199311  41.8015644  91.5253238  94.4485054  34.0776778
  92.3174530  94.1075879  33.6623077  91.7649888  94.5580029  34.9978931
  99.5588365  96.6204830  26.5507023  98.9076345  97.2058911  26.1641036
 100.3532728  97.1511025  26.6102060  93.4843992  93.7093968  26.9494157
  94.2574868  93.1622955  26.8107033  93.8369391  94.5738217  27.1608618
  95.3229035  95.0370350  40.1561056  95.0318901  95.9415981  40.0407723
  95.9586019  95.0786877  40.8705126  96.2485242  92.4147198  36.7462416
  96.8448814  92.1903221  36.0319379  96.3060213  91.6731944  37.3487864
  95.8210270  89.8686634  24.5812607  96.0735791  89.3468155  23.8196070
  94.8834829  89.7052779  24.6839290 100.8653553  88.8722412  32.3887350
 101.6516642  88.4541835  32.0377767 101.1292257  89.7768504  32.5568999
 101.0363630  94.3095262  27.0876007 100.4009463  94.3829889  27.7996912
 100.7061037  94.8988861  26.4095086 106.2661980  88.8097645  33.2920329
 106.9987152  88.2396862  33.5258158 105.5101336  88.4219246  33.7326834
  95.5406559  91.7714740  26.7836982  95.4242817  91.0959643  27.4518066
  95.6508819  91.2847114  25.9669135  97.8838100  91.2324887  30.4883671
  97.5196307  90.7055508  31.1996593  98.7405216  90.8423356  30.3150156
 103.7887400  82.5219219  37.7514937 103.4570725  83.3914630  37.5276152
 103.1933014  82.2055503  38.4308968  97.5243587  86.2614786  25.4845020
  97.6917989  87.1295023  25.8515491  97.3340756  86.4242068  24.5606309
 100.2818920  94.7231765  37.1510850  99.9819643  95.6256804  37.0426657
  99.9369979  94.4563949  38.0032003  93.7331401  91.1745562  33.1847554
  92.8081898  91.0421776  33.3925246  93.9815815  91.9539781  33.6817497
 103.6816064  87.2414305  34.8308287 102.7732941  87.1729714  34.5367048
 103.6303659  87.7186250  35.6590113  97.5032808  88.7172444  26.4691686
  97.3832433  89.1629495  27.3077167  96.8085396  89.0657762  25.9105225
  91.0940212  90.8178836  34.0191343  91.2232594  91.0713315  34.9330755
  90.4137664  91.4106544  33.6995999  95.2639700 101.4876086  30.1181818
  95.1863729 102.4383911  30.1970298  94.6601343 101.1421958  30.7756744
  97.7556929  88.6603951  42.7743185  96.9790264  89.2197871  42.7646049
  98.3947493  89.1460734  43.2958055 105.5477710  85.4430744  36.6086161
 104.9052090  85.7363277  35.9625956 105.0432639  85.3283664  37.4139358
 103.2017874  89.1893917  27.2972020 104.1135730  89.4221304  27.1219718
 102.6927521  89.7730961  26.7347099  96.0103302  91.4689404  42.3361152
  96.7517986  92.0074448  42.0595975  95.3040287  92.0955693  42.4932703
 101.4858641  93.6118545  40.9333313 101.8941997  93.1700955  40.1887945
 100.7635903  93.0371172  41.1867506  97.8389711  88.5491152  38.3066870
  98.6850907  88.9730565  38.4501519  97.7788349  87.8924776  39.0005433
 101.8087456  94.1719736  34.6885602 101.1796319  94.3365450  33.9861670
 101.4213118  94.5861345  35.4596566 105.6876688  95.1074173  32.0429966
 105.0027726  95.4873075  31.4926999 105.7720537  95.7169500  32.7761913
 100.9889157  86.2095520  39.9648044 100.7450089  86.9637581  39.4282319
 101.2649087  86.5880868  40.7995291 102.9427620  92.7534132  38.6425309
 103.1544515  93.3965892  37.9659690 102.8957368  91.9196449  38.1747239
 100.5453849  85.3651953  35.5461881  99.6838328  85.6633207  35.8378619
 100.5716283  85.5822352  34.6142914  97.3615418  93.9094144  31.9535687
  97.8253763  94.1881847  31.1640310  97.0972216  93.0077588  31.7708778
  94.2539499  93.4565625  34.8915450  94.8240856  93.8852894  34.2532935
  94.8447611  93.1748210  35.5899636  96.2984304  90.0317296  28.7625252
  97.0008347  90.4838340  29.2299179  95.9664932  89.3901115  29.3905145
  94.7464666  88.6229053  43.1376462  94.1163326  89.3045333  43.3711858
  94.6400753  88.5112134  42.1929600  90.0409638  88.2900849  34.0642386
  89.2508692  88.5458377  33.5882496  90.5320885  89.1049187  34.1694426
 104.0573448  95.6306088  36.8147667 104.8790891  95.2286275  36.5330348
 104.0535850  95.5274322  37.7663782  91.9924383  88.6545428  31.0225862
  91.1955547  88.7664122  31.5409358  91.7649976  88.9932080  30.1566753
  97.8230051  95.1790131  38.9708377  97.8874483  95.6410538  39.8066549
  97.1140975  94.5487496  39.0990687  88.3247341  88.5431339  36.4957377
  88.5755379  89.4278349  36.7614952  88.8606889  88.3635941  35.7232468
 112.1479441  91.9744836  33.1632638 111.3943149  91.4052234  33.0076642
 112.2826982  91.9407501  34.1103273  97.5378069  96.8458239  28.8387357
  97.4023743  97.6909774  29.2672205  98.0787881  97.0477516  28.0753291
  94.0245408  82.9249818  45.5001713  93.6312354  82.3716017  46.1749357
  94.8411549  83.2360397  45.8908230  90.9907466  94.3633677  29.4115282
  91.5031987  95.1576927  29.5620847  91.6430179  93.6659967  29.3448884
  92.8002351  97.4799433  31.4938036  92.9768979  98.4017398  31.3059020
  93.5959184  97.1657852  31.9232415  96.9413369  84.3407698  43.0921969
  97.6823083  84.9414851  43.0126432  97.1731292  83.5985335  42.5340012
  92.0854707  89.5264065  41.3700199  91.9708222  88.6249322  41.6707298
  91.2299225  89.7727762  41.0185015  99.1646545  97.4681805  42.9687699
  98.7210399  96.6818184  42.6508604  99.8263759  97.6560956  42.3031590
  93.9233666  98.9977607  37.4948378  94.4741091  98.8694670  36.7225372
  93.0845142  99.2972496  37.1443271 101.2627783  97.7484605  40.9969101
 101.2446258  98.5693486  40.5049370 102.1847703  97.6238680  41.2219242
  97.7200837  95.2628735  41.8392609  98.2529174  94.5017023  41.6091917
  97.1914918  94.9702386  42.5816764 100.8870532  80.3688800  37.3686251
 100.5434802  81.2590442  37.2925361 101.2549495  80.1790458  36.5055836
  88.9556383  92.6922331  30.1874853  89.7931605  93.1019339  29.9708561
  89.1334650  91.7521773  30.1575047 100.8520815  90.3597412  25.8758686
 100.3367438  91.1302016  26.1147073 100.5798123  89.6862548  26.4991747
  98.4367926  85.2047112  30.9343924  97.5809522  84.8153963  30.7549563
  98.8494878  85.2839073  30.0743710  99.9667073  82.7393456  35.3335484
  99.4631868  82.7023591  34.5203289 100.2597679  83.6486198  35.3932141
  96.2109958  82.8232185  34.3401666  97.0762955  82.6274994  33.9807555
  96.2787467  82.5942537  35.2671023 105.8255089  93.1129766  27.8111859
 105.0484532  92.7740926  27.3667022 106.5046570  93.1182389  27.1366824
 100.6407118  88.2324504  27.7018467 100.3357254  88.5470653  28.5528610
 101.5937560  88.3105924  27.7445800  99.0853550  94.3914727  29.3511421
  98.5574912  93.6567487  29.0384659  98.5841053  95.1689403  29.1051389
 104.0646396  92.5863747  34.4678467 103.4070070  93.2763009  34.5558596
 104.8686795  92.9760179  34.8112454  93.8172278  85.0534393  31.7118033
  94.3916029  84.8309575  30.9791226  94.4043260  85.1223088  32.4646634
 102.8751855  90.9408120  32.5182409 103.3883736  91.5738112  33.0204119
 103.5253079  90.3409316  32.1525769  94.1441865  87.0838854  25.7313918
  93.3079177  87.4213541  26.0523193  94.0046634  86.9487834  24.7941055
  96.1194945  81.9275642  30.4393102  95.4659358  81.6124659  29.8149717
  96.0775419  81.3051383  31.1652925  97.2306150  92.2094937  22.3546394
  96.3233212  91.9784191  22.5537543  97.7277182  91.4132557  22.5420376
  99.3532686  88.4157576  34.7640750  98.4355247  88.6372523  34.6062438
  99.7692829  88.4903886  33.9052457 100.1367733  89.8148991  29.8943430
 100.8839552  90.3270389  29.5850552 100.4059323  89.4933044  30.7547824
  98.4094384  92.3107532  26.8770384  97.5005603  92.0266565  26.9742854
  98.4389467  92.7306611  26.0173691 103.6413651  95.9214122  30.6461552
 103.1875978  95.0805032  30.7026742 103.0107618  96.5575520  30.9836332
 102.5846571  86.8506108  31.8762219 101.8469327  86.3383494  32.2072462
 102.8373344  86.4106489  31.0645496 102.0846590  97.7590618  31.5811370
 102.3769565  98.3195675  30.8623736 102.5945211  98.0519179  32.3364529
 102.6858198  79.6282360  32.4703989 102.9917075  78.7679723  32.1829904
 103.4110803  80.2199980  32.2702982  88.9782554  90.0313046  30.8585586
  88.7806954  89.4382407  30.1336653  88.4229218  89.7265256  31.5761525
  96.9579278  89.9236153  32.9780180  97.0127887  88.9709989  32.9022656
  96.1470480  90.0795592  33.4621478  98.1070471  93.8516276  24.2158463
  97.6689901  93.1352135  23.7564100  98.8480912  94.0792391  23.6543554
  94.8971638  88.5413212  30.7370558  94.0839503  88.8407383  31.1435751
  95.3930632  88.1468901  31.4545041  97.0480215  98.5370969  32.6704823
  97.0056394  98.7631816  31.7413355  97.9642914  98.3034344  32.8190624
 100.4945849  89.0055037  39.5685452 100.8495237  89.2326510  40.4279918
 101.1417980  89.3373414  38.9462708 106.2243586  92.1273473  30.2734781
 106.0861485  92.3175069  29.3455971 105.8679805  92.8892856  30.7302833
  94.3885712  86.1131568  36.3531793  95.0285092  85.9720327  35.6554757
  93.5563243  85.8266081  35.9770395 106.2512966  94.1950000  35.2846053
 106.6849472  94.1025289  36.1329107 106.9644546  94.1707500  34.6466069
  95.1646016  95.4133998  32.4666786  95.9586615  94.9184319  32.2649361
  94.4537709  94.8851862  32.1034491  99.9840861  97.7952094  36.8179153
 100.0377883  98.3643030  37.5856869  99.1155642  97.9653979  36.4533191
  91.4728780  89.5577080  28.5426539  90.5426368  89.4961536  28.7596501
  91.5686252  89.0353033  27.7463180  91.3914329  86.0831893  31.1304780
  91.6521146  86.9977226  31.0213941  92.2131501  85.6156336  31.2801393
  92.8639254  87.4969650  38.3003605  93.5362307  87.2887012  37.6516254
  92.0369041  87.2991736  37.8608837 107.1128515  94.2373701  37.8178938
 107.3064405  95.1419511  38.0638213 107.0129133  93.7781120  38.6517523
  98.7664826  84.1231591  40.3169266  98.1192741  84.8221541  40.2233742
  99.5365841  84.5567735  40.6845514 102.1743624  94.3880443  43.3919819
 102.0229130  94.1590995  42.4749903 102.1648303  95.3451045  43.4051164
  98.9428960  91.9612356  38.3766085  99.8721020  92.1123516  38.2035053
  98.5219990  92.0496377  37.5214732  97.7417292  95.9863020  36.1464623
  97.6028378  95.6181805  37.0190561  96.9531888  96.5010660  35.9748581
  98.3365444 101.0872117  27.4890160  98.5117200 100.6160160  28.3035782
  97.6498232 101.7137883  27.7171420  99.2922507  95.3644623  33.5353461
  98.9572340  95.3245393  34.4311111  98.7926453  94.6989339  33.0623871
  93.2666751  90.7712253  39.0606042  93.1286549  90.0392492  39.6617581
  94.1771675  90.6821153  38.7790230 102.2281699  92.7100657  23.8090520
 101.6110870  91.9847486  23.7123573 101.7598187  93.4710018  23.4657595
  95.8949052  90.4832212  38.5489722  96.6048670  89.8425405  38.5076340
  95.8518360  90.7345107  39.4715902 103.8835831  97.4199566  41.4696301
 103.8248377  96.7358786  40.8026884 104.2855349  98.1618556  41.0176927
  94.6077986  87.4697430  40.3685361  94.0715343  87.0188169  41.0206957
  94.0194694  87.6043339  39.6255825  92.9026529 104.2361480  34.2630020
  93.1423128 104.8680004  34.9409038  92.0595726 103.8849520  34.5495379
  94.0180245  86.9286082  22.9311825  93.1409711  86.8074883  22.5674071
  94.4937998  86.1372160  22.6790713 103.8853238  95.3839150  39.7010280
 102.9980017  95.0465072  39.8236679 104.4551789  94.6522181  39.9379046
  85.5382385  91.7163241  33.0253332  86.2253425  91.4024972  32.4374347
  85.3830514  92.6204606  32.7520583  90.3417107  86.6053438  37.4538356
  90.2575296  85.9979108  36.7188765  89.5199814  87.0962456  37.4547852
  97.4154391 100.0440602  36.6671524  97.3424563 100.8495574  37.1790828
  96.9731784 100.2432568  35.8419545  97.2044171  99.2812372  30.1774345
  96.4211693  99.8234052  30.2712570  97.9036916  99.7986352  30.5768586
 100.5140821  85.0907002  32.8208551 101.0109521  84.3376964  32.5009621
  99.7427803  85.1271318  32.2551760 108.3670578  90.7947367  34.4626842
 108.3560455  91.6772083  34.0920775 107.4987958  90.4418918  34.2681379
  99.8753075  99.9427436  38.8229682 100.5881047 100.5774901  38.7505584
  99.3843103 100.0391302  38.0069684 101.5970602  93.8478689  30.3946974
 100.6626880  93.9680151  30.2251678 101.7747270  92.9451156  30.1306984
  97.0975790  87.2324385  32.5480235  96.7273577  86.6795425  33.2361141
  97.5934882  86.6282518  31.9955235 104.9843153  89.6896008  30.9297008
 105.4503605  90.5224000  30.8557311 105.4350654  89.2240990  31.6342267
  94.9264988  97.6921880  39.6435253  95.6274448  98.3258363  39.7964647
  94.4560103  98.0336611  38.8830892 103.0519384  96.0339829  27.9283160
 103.3279228  95.9196424  28.8377034 102.1823883  95.6357314  27.8895333
 102.9559816  82.0576595  34.9687909 102.0422896  82.2880822  35.1370116
 103.3852917  82.1415039  35.8201942 102.7266274  90.2466487  37.4687803
 102.0737725  90.4942394  36.8140256 103.1046654  89.4330625  37.1350281
  99.6873448 100.2826180  31.5715974  99.8695843  99.4647836  32.0343726
 100.5106434 100.4993872  31.1340864 100.0215614  99.2094365  28.8331022
 100.5503380  98.6986820  28.2201184 100.2843833  98.8936896  29.6976555
  98.7753847  90.9886298  43.9553841  98.0994484  90.8880427  44.6256216
  99.5981481  90.8325512  44.4189838  90.5232706  97.2258235  36.5766356
  91.1086143  96.4801923  36.7094260  90.3257545  97.5362191  37.4603020
  93.3771362 100.2609482  31.5928798  92.7081737 100.7455610  31.1092838
  93.2384231 100.5078702  32.5072177  85.1150361  89.7963835  35.2970799
  85.1534461  89.2627426  36.0907917  84.6090654  89.2699040  34.6781776
  97.5176630 102.2953226  38.1911457  98.0694938 102.4584847  38.9560542
  97.8582824 102.8857663  37.5191481  92.4941123  84.6428375  38.7933341
  92.5582450  85.5043206  38.3810739  92.4308244  84.0302377  38.0605700
  91.9693396  86.7151508  42.4406376  92.5965435  86.3328585  43.0543900
  91.1121315  86.4965710  42.8062068 102.3687505  97.1214483  44.0460111
 102.9127409  97.7344441  43.5515066 101.7874349  97.6794061  44.5627124
  88.7458939  88.5227937  28.3724730  89.0412380  87.6138615  28.3191784
  87.8446974  88.5015676  28.0505733 100.6545017 100.2435201  35.1775139
 100.5296157  99.4424941  34.6686084 101.3124109 100.7381394  34.6889109
  92.2753186  86.5983934  34.3552279  91.5539771  87.2119901  34.2159752
  93.0646441  87.1341698  34.2768925 102.7179926  98.0444221  36.8054689
 101.7710261  97.9249572  36.7333016 103.0662699  97.1566719  36.8880950
  95.0779499  83.9338360  40.6292931  95.6013901  84.1800657  41.3919240
  94.8591833  84.7658395  40.2096068  90.4746780  86.2042035  28.4964056
  90.1459486  85.3239414  28.3139161  90.8286151  86.1489703  29.3840445
  99.7226359  97.8396937  33.0059041  99.5751322  96.9113645  33.1866611
 100.5479853  97.8617028  32.5216116  93.5888603  86.4915004  28.8639533
  93.9284676  87.0200926  28.1418142  94.0360724  86.8295411  29.6398100
 103.3260481  98.6625496  34.0923914 104.2507028  98.4568357  33.9548365
 103.1575784  98.4141897  35.0013255  96.2832044  84.8752055  38.3142601
  95.9428865  84.0759868  38.7163281  95.5771051  85.1753766  37.7419434
  96.9348516  81.9601368  36.7669924  97.7574585  81.4861846  36.6448815
  97.1786580  82.7391851  37.2668611  95.5756751  84.9889626  27.0632826
  96.2965113  85.3670879  26.5596543  94.9522055  85.7078503  27.1667804
  99.7187873  85.6934775  27.9991158  99.9351488  86.5759413  27.6979986
  99.2381941  85.3020988  27.2696800  94.4587095  88.6520488  34.5761903
  94.3131676  88.9660791  35.4686184  93.9812298  89.2705389  34.0232802
  96.3183478  85.6423036  34.6242792  96.3045047  84.7464130  34.2875090
  97.0355906  85.6493700  35.2581078  98.1709608  86.0760376  36.6695920
  97.9127386  86.9977447  36.6680250  97.6394649  85.6790811  37.3596384
 103.1155797  99.1811164  29.4486005 103.2892675  98.6157586  28.6959858
 103.6084688  99.9812058  29.2665495  88.9332757  91.1925833  37.5149564
  88.3886225  91.9685641  37.6469838  89.8112107  91.5396637  37.3568685
  95.7220374  84.5237417  29.8930363  95.8436285  83.5954063  30.0921250
  95.4322416  84.5376102  28.9808678  98.5911564  82.2092327  33.0297082
  98.6133261  82.2731660  32.0749062  99.0079623  81.3696836  33.2237589
 108.9695188  91.9447586  31.0676305 109.4126334  91.1954912  30.6695428
 108.0921699  91.9357723  30.6850037  89.7198779  90.3195729  40.4079721
  88.9780515  90.4678364  40.9944351  89.3991523  90.5803995  39.5446470
 106.0022393  95.9477633  28.0770234 106.5273717  96.2864906  27.3519554
 105.9144745  95.0124649  27.8933369  97.6642442  99.8611707  40.2060111
  97.9729568  99.6160854  41.0782811  98.4617924 100.0658346  39.7178981
  97.6863054 102.0149617  32.4365487  97.2468044 101.5225995  33.1298344
  98.4371171 101.4722584  32.1957563  90.1655393  98.2061158  32.4390116
  90.9913412  97.9064929  32.0588759  89.8149445  97.4368780  32.8879904
  95.1336926  97.5587626  34.5087789  94.5116935  96.8958331  34.2090017
  95.8041793  97.5848758  33.8261437  88.3663998  96.1247484  33.3979049
  87.5295906  95.6969658  33.2163050  88.3387643  96.3179927  34.3349840
  95.2061453  86.0369414  44.1020295  95.2549609  86.9131537  43.7198065
  95.7483967  85.4946807  43.5291938 105.6916299  96.5810537  43.3821432
 104.9011843  96.5634676  42.8425932 105.4549653  97.1198831  44.1370469
 105.8114174  93.4303004  40.6954161 105.8612179  93.2653011  41.6369684
 105.7028097  92.5630263  40.3052042  94.6950433  96.1091549  27.9846250
  94.8438553  96.7927014  27.3312922  95.5016876  96.0896639  28.4995705
 103.1017936  89.4133932  42.0113468 104.0027799  89.2740396  41.7197465
 103.1765911  89.5788386  42.9511645  97.4360742  86.7900786  40.8566654
  96.5664051  87.0834352  40.5849242  97.6720222  87.3741231  41.5773917
 107.3132371  95.8499945  40.9396182 107.0217179  96.2129926  41.7759643
 106.7004502  95.1366953  40.7609514 108.5128053  93.4152825  33.4598753
 109.3474944  93.8542629  33.6236313 108.6487182  92.9391478  32.6406998
 105.5619559  90.9732560  39.4076240 106.0373681  91.1660206  38.5995092
 104.6385124  91.0291745  39.1619624  92.4503066  92.1356727  28.9907319
  92.2049108  91.2319057  29.1887529  92.6198980  92.1373877  28.0486797
 100.1399775  83.0080403  38.3732074 100.6581719  83.7441430  38.0478563
  99.7854908  83.3144397  39.2078833  91.7198713  87.8685084  26.4893480
  91.0267958  87.9429439  25.8333516  91.4750465  87.1045428  27.0114997
 100.3912370  79.4280686  33.8932971 100.6714123  78.7603875  34.5193397
 101.1762977  79.6209781  33.3807635  98.1945838  98.6039680  25.4557997
  97.6219805  99.2229867  25.0028469  98.7678632  99.1539041  25.9897919
 104.2621228  87.8498320  37.6404546 105.2138651  87.9496417  37.6616770
 104.0924678  87.0576588  38.1502630 102.2835607  84.9353903  37.8263947
 101.6885540  85.2158916  37.1310435 101.9985304  85.4247804  38.5980688
 106.7409306  91.0704439  36.7546846 106.7085626  90.1320440  36.9406529
 107.3509929  91.1488476  36.0212670  98.5792637  89.9400492  22.7974050
  99.5251741  89.8106701  22.8662468  98.2006882  89.2015154  23.2743478
 106.8903794  87.8615483  36.8005129 106.3742843  87.0773939  36.6135058
 107.7743743  87.5334199  36.9651648 104.5514521  81.6056498  32.7600941
 104.3539342  81.2971587  33.6444273 105.1614227  82.3318137  32.8898871
 112.5585856  92.1320446  35.8952882 113.2889244  91.8705734  36.4560586
 111.9492801  91.3949168  35.9354950 110.6401153  90.2728309  36.4927334
 109.9134316  90.1384274  35.8843825 110.2248440  90.5805137  37.2984052
  98.4631329  93.9918239  44.2574707  99.3834339  94.1696838  44.4514753
  98.4280912  93.0474284  44.1054406  96.7635554  87.8650469  22.7328935
  95.8567009  87.5683581  22.8091648  97.0411535  87.5680287  21.8663221
  87.6813494  89.1856832  33.1827981  87.3616279  88.3322140  32.8902355
  87.1346922  89.4005410  33.9385949  91.4593402  91.9019273  36.8997488
  91.6779412  92.8336381  36.9185522  91.8719176  91.5427248  37.6852292
  98.3797620  82.4087358  28.8873176  97.5698348  82.0634443  29.2628422
  99.0682036  82.0994902  29.4760788 100.3088168  81.4865405  30.5097473
 100.8619206  81.9060859  31.1687496 100.5458254  80.5601153  30.5520429
  96.3321267  87.4752479  46.2900237  96.2317994  88.4246836  46.2212328
  96.1142809  87.1470718  45.4176307  95.5334338  84.7237404  22.8740914
  96.3953502  85.0492302  23.1336731  95.7184683  83.9368900  22.3613980
  87.5501754  92.8059744  35.1521103  86.8565226  92.3913696  34.6391057
  88.2974745  92.8480280  34.5554522 103.6866975  83.5965930  30.0176137
 103.1065644  84.2550734  29.6354189 103.4202908  82.7743275  29.6063555
 102.1370541  82.9970988  32.2197457 102.6370320  83.1087523  31.4111776
 102.7806149  82.6932041  32.8598266  96.1952537  90.9049618  45.1065298
  95.7119619  91.7049978  45.3129187  96.2813476  90.9157563  44.1532742
  89.4638497  92.7377997  33.0287118  89.4409185  92.8365685  32.0769001
  89.7739133  93.5843148  33.3504284  92.1225875  94.7954152  37.1433732
  93.0769128  94.7638095  37.0763664  91.9238398  94.3344776  37.9583958
  92.7125257  93.3655269  39.7104530  93.5318146  93.8599347  39.7339367
  92.9862064  92.4487237  39.6822097 102.4691853  85.7566021  29.0732485
 101.5817708  86.0415671  28.8552680 102.8845842  85.5959784  28.2259762
 105.8206389  85.7812542  32.7886825 106.5966779  86.2708994  33.0611441
 105.0954523  86.2070596  33.2458694 108.2578948  86.4940161  33.8460765
 108.8523439  86.2535897  33.1354073 108.3305531  85.7747292  34.4734301
  90.4776103 100.3373772  34.1603930  90.3430571  99.5774173  33.5941928
  90.0608166 101.0614672  33.6932719 102.4432877  91.2720557  29.2882775
 102.3868078  91.7289108  28.4490408 102.9961219  90.5111241  29.1105618
 106.2537683  87.0610289  30.1132895 105.9974617  86.6606924  30.9441103
 105.6290551  87.7754083  29.9883034 110.5650020  89.8006362  32.6204186
 110.0049578  89.8699551  33.3935748 109.9593524  89.6247347  31.9003683
  93.6345229 101.2343089  34.3722373  93.5177613 102.1788521  34.2701063
  92.8137676 100.9316651  34.7608172 103.5221764  95.9593225  25.2178965
 104.3567368  95.5274423  25.0356440 103.3606107  95.7875238  26.1455860
 103.1767656  92.4625338  26.5835305 103.1216460  92.2969609  25.6423749
 102.5513711  93.1701371  26.7397494  87.9660171  87.6993402  40.4096727
  88.6119035  87.1892356  40.8983952  87.7577322  88.4362084  40.9840152
 100.4913563  94.7674250  45.9088867 101.3604723  94.9414902  45.5475502
 100.0120315  95.5868667  45.7864597  96.4863781  81.9633447  26.1620623
  96.4742451  82.9075287  26.3188894  97.3787203  81.7803592  25.8680084
  94.6599743 101.8871351  37.5878301  95.5626990 101.9194961  37.9044796
  94.4337113 100.9571802  37.6024637  96.4153345 100.6402337  34.2488380
  95.4648976 100.6404199  34.1352752  96.7185832  99.8935072  33.7324414
 100.3015901  78.5576224  30.4166560  99.5348297  78.0034710  30.5623242
 100.7126606  78.6298092  31.2780711  92.3057662  84.8461019  44.5071741
  93.1689124  84.4897824  44.7175066  91.7323073  84.5074914  45.1947145
 108.9595745 106.4290304  35.2495667 108.6214257 106.3131369  34.3616202
 109.8285513 106.0281469  35.2296673 109.4415528 107.5825156  41.2081872
 109.4304169 107.1877954  40.3362376 109.6036168 106.8491228  41.8015644
 102.3646993 109.7776972  34.0776778 103.1568285 109.4367797  33.6623077
 102.6043643 109.8871947  34.9978931 106.1622789 110.3662267  40.1561056
 105.8712655 111.2707898  40.0407723 106.7979774 110.4078795  40.8705126
 107.0878996 107.7439116  36.7462416 107.6842568 107.5195138  36.0319379
 107.1453968 107.0023861  37.3487864 114.6281155  97.8511137  37.7514937
 114.2964480  98.7206548  37.5276152 114.0326768  97.5347421  38.4308968
 104.5725156 106.5037480  33.1847554 103.6475652 106.3713694  33.3925246
 104.8209569 107.2831699  33.6817497 114.5209818 102.5706223  34.8308287
 113.6126696 102.5021632  34.5367048 114.4697414 103.0478168  35.6590113
 101.9333967 106.1470753  34.0191343 102.0626348 106.4005232  34.9330755
 101.2531418 106.7398461  33.6995999 108.5950684 103.9895869  42.7743185
 107.8184018 104.5489789  42.7646049 109.2341247 104.4752652  43.2958055
 116.3871465 100.7722662  36.6086161 115.7445845 101.0655195  35.9625956
 115.8826393 100.6575582  37.4139358 106.8497056 106.7981322  42.3361152
 107.5911741 107.3366366  42.0595975 106.1434042 107.4247611  42.4932703
 108.6783466 103.8783069  38.3066870 109.5244661 104.3022483  38.4501519
 108.6182104 103.2216694  39.0005433 111.8282911 101.5387438  39.9648044
 111.5843843 102.2929498  39.4282319 112.1042842 101.9172785  40.7995291
 111.3847603 100.6943871  35.5461881 110.5232082 100.9925124  35.8378619
 111.4110038 100.9114270  34.6142914 105.0933253 108.7857543  34.8915450
 105.6634611 109.2144811  34.2532935 105.6841365 108.5040128  35.5899636
 105.5858420 103.9520970  43.1376462 104.9557081 104.6337251  43.3711858
 105.4794508 103.8404052  42.1929600 100.8803392 103.6192766  34.0642386
 100.0902446 103.8750295  33.5882496 101.3714640 104.4341104  34.1694426
 102.8318138 103.9837346  31.0225862 102.0349301 104.0956040  31.5409358
 102.6043730 104.3223998  30.1566753 108.6623805 110.5082049  38.9708377
 108.7268238 110.9702456  39.8066549 107.9534729 109.8779414  39.0990687
  99.1641095 103.8723257  36.4957377  99.4149134 104.7570267  36.7614952
  99.7000644 103.6927858  35.7232468 104.8639163  98.2541736  45.5001713
 104.4706108  97.7007935  46.1749357 105.6805303  98.5652315  45.8908230
 107.7807124  99.6699615  43.0921969 108.5216837 100.2706768  43.0126432
 108.0125047  98.9277253  42.5340012 102.9248462 104.8555982  41.3700199
 102.8101977 103.9541240  41.6707298 102.0692979 105.1019679  41.0185015
 108.5594592 110.5920652  41.8392609 109.0922929 109.8308940  41.6091917
 108.0308673 110.2994304  42.5816764 111.7264287  95.6980718  37.3686251
 111.3828556  96.5882360  37.2925361 112.0943249  95.5082376  36.5055836
 110.8060827  98.0685373  35.3335484 110.3025623  98.0315508  34.5203289
 111.0991434  98.9778116  35.3932141 107.0503713  98.1524103  34.3401666
 107.9156710  97.9566912  33.9807555 107.1181222  97.9234455  35.2671023
 104.6566032 100.3826311  31.7118033 105.2309784 100.1601492  30.9791226
 105.2437014 100.4515005  32.4646634 106.9588700  97.2567560  30.4393102
 106.3053112  96.9416577  29.8149717 106.9169174  96.6343300  31.1652925
 110.1926440 103.7449493  34.7640750 109.2749001 103.9664440  34.6062438
 110.6086584 103.8195804  33.9052457 113.5251952  94.9574277  32.4703989
 113.8310829  94.0971641  32.1829904 114.2504557  95.5491898  32.2702982
  99.8176308 105.3604964  30.8585586  99.6200708 104.7674325  30.1336653
  99.2622972 105.0557174  31.5761525 107.7973032 105.2528070  32.9780180
 107.8521642 104.3001907  32.9022656 106.9864234 105.4087510  33.4621478
 105.7365392 103.8705130  30.7370558 104.9233258 104.1699301  31.1435751
 106.2324386 103.4760819  31.4545041 111.3339604 104.3346955  39.5685452
 111.6888991 104.5618428  40.4279918 111.9811735 104.6665331  38.9462708
 105.2279467 101.4423486  36.3531793 105.8678846 101.3012245  35.6554757
 104.3956997 101.1557999  35.9770395 102.2308083 101.4123811  31.1304780
 102.4914900 102.3269144  31.0213941 103.0525256 100.9448253  31.2801393
 103.7033009 102.8261568  38.3003605 104.3756062 102.6178930  37.6516254
 102.8762795 102.6283654  37.8608837 109.6058581  99.4523509  40.3169266
 108.9586496 100.1513458  40.2233742 110.3759596  99.8859653  40.6845514
 109.7822715 107.2904274  38.3766085 110.7114775 107.4415433  38.2035053
 109.3613745 107.3788294  37.5214732 108.5811047 111.3154938  36.1464623
 108.4422132 110.9473722  37.0190561 107.7925643 111.8302578  35.9748581
 104.1060506 106.1004171  39.0606042 103.9680304 105.3684410  39.6617581
 105.0165429 106.0113071  38.7790230 106.7342806 105.8124130  38.5489722
 107.4442425 105.1717322  38.5076340 106.6912115 106.0637025  39.4715902
 105.4471740 102.7989348  40.3685361 104.9109097 102.3480086  41.0206957
 104.8588449 102.9335257  39.6255825  96.3776139 107.0455159  33.0253332
  97.0647179 106.7316889  32.4374347  96.2224268 107.9496524  32.7520583
 101.1810862 101.9345356  37.4538356 101.0969050 101.3271025  36.7188765
 100.3593568 102.4254374  37.4547852 111.3534576 100.4198919  32.8208551
 111.8503275  99.6668882  32.5009621 110.5821557 100.4563236  32.2551760
 107.9369544 102.5616302  32.5480235 107.5667332 102.0087343  33.2361141
 108.4328637 101.9574436  31.9955235 113.7953570  97.3868513  34.9687909
 112.8816650  97.6172740  35.1370116 114.2246672  97.4706957  35.8201942
 113.5660029 105.5758405  37.4687803 112.9131479 105.8234312  36.8140256
 113.9440409 104.7622543  37.1350281 109.6147602 106.3178216  43.9553841
 108.9388239 106.2172345  44.6256216 110.4375236 106.1617430  44.4189838
 101.3626461 112.5550152  36.5766356 101.9479898 111.8093840  36.7094260
 101.1651299 112.8654109  37.4603020  95.9544116 105.1255753  35.2970799
  95.9928215 104.5919343  36.0907917  95.4484408 104.5990958  34.6781776
 103.3334878  99.9720293  38.7933341 103.3976204 100.8335124  38.3810739
 103.2701998  99.3594295  38.0605700 102.8087150 102.0443426  42.4406376
 103.4359189 101.6620503  43.0543900 101.9515069 101.8257628  42.8062068
  99.5852693 103.8519855  28.3724730  99.8806134 102.9430533  28.3191784
  98.6840729 103.8307594  28.0505733 103.1146940 101.9275851  34.3552279
 102.3933526 102.5411819  34.2159752 103.9040196 102.4633616  34.2768925
 105.9173254  99.2630278  40.6292931 106.4407656  99.5092574  41.3919240
 105.6985587 100.0950313  40.2096068 101.3140535 101.5333952  28.4964056
 100.9853241 100.6531331  28.3139161 101.6679905 101.4781621  29.3840445
 107.1225799 100.2043973  38.3142601 106.7822619  99.4051786  38.7163281
 106.4164805 100.5045684  37.7419434 107.7742271  97.2893285  36.7669924
 108.5968340  96.8153763  36.6448815 108.0180334  98.0683769  37.2668611
 105.2980849 103.9812406  34.5761903 105.1525430 104.2952709  35.4686184
 104.8206053 104.5997306  34.0232802 107.1577232 100.9714954  34.6242792
 107.1438801 100.0756047  34.2875090 107.8749660 100.9785618  35.2581078
 109.0103363 101.4052294  36.6695920 108.7521141 102.3269365  36.6680250
 108.4788403 101.0082729  37.3596384  99.7726512 106.5217750  37.5149564
  99.2279980 107.2977558  37.6469838 100.6505861 106.8688555  37.3568685
 106.5614128  99.8529334  29.8930363 106.6830039  98.9245980  30.0921250
 106.2716171  99.8668020  28.9808678 109.4305319  97.5384245  33.0297082
 109.4527015  97.6023578  32.0749062 109.8473378  96.6988753  33.2237589
 100.5592533 105.6487647  40.4079721  99.8174269 105.7970282  40.9944351
 100.2385278 105.9095912  39.5446470  99.2057752 111.4539402  33.3979049
  98.3689660 111.0261576  33.2163050  99.1781398 111.6471845  34.3349840
 106.0455208 101.3661332  44.1020295 106.0943363 102.2423454  43.7198065
 106.5877722 100.8238725  43.5291938 113.9411691 104.7425849  42.0113468
 114.8421554 104.6032314  41.7197465 114.0159665 104.9080304  42.9511645
 108.2754496 102.1192704  40.8566654 107.4057806 102.4126270  40.5849242
 108.5113977 102.7033149  41.5773917 110.9793530  98.3372321  38.3732074
 111.4975474  99.0733348  38.0478563 110.6248663  98.6436314  39.2078833
 111.2306124  94.7572603  33.8932971 111.5107878  94.0895792  34.5193397
 112.0156731  94.9501699  33.3807635 115.1014983 103.1790237  37.6404546
 116.0532405 103.2788335  37.6616770 114.9318433 102.3868506  38.1502630
 113.1229362 100.2645821  37.8263947 112.5279294 100.5450833  37.1310435
 112.8379059 100.7539722  38.5980688 117.7297549 103.1907401  36.8005129
 117.2136597 102.4065857  36.6135058 118.6137497 102.8626117  36.9651648
 115.3908276  96.9348416  32.7600941 115.1933097  96.6263504  33.6444273
 116.0007981  97.6610055  32.8898871 109.3025084 109.3210156  44.2574707
 110.2228093 109.4988755  44.4514753 109.2674667 108.3766202  44.1054406
  98.5207249 104.5148750  33.1827981  98.2010033 103.6614058  32.8902355
  97.9740677 104.7297328  33.9385949 102.2987156 107.2311191  36.8997488
 102.5173166 108.1628299  36.9185522 102.7112930 106.8719165  37.6852292
 109.2191374  97.7379276  28.8873176 108.4092102  97.3926361  29.2628422
 109.9075791  97.4286820  29.4760788 111.1481922  96.8157323  30.5097473
 111.7012961  97.2352776  31.1687496 111.3852009  95.8893071  30.5520429
 107.1715022 102.8044397  46.2900237 107.0711748 103.7538754  46.2212328
 106.9536564 102.4762636  45.4176307  98.3895509 108.1351661  35.1521103
  97.6958980 107.7205614  34.6391057  99.1368500 108.1772198  34.5554522
 112.9764296  98.3262906  32.2197457 113.4764074  98.4379440  31.4111776
 113.6199904  98.0223959  32.8598266 107.0346292 106.2341535  45.1065298
 106.5513373 107.0341896  45.3129187 107.1207231 106.2449480  44.1532742
 100.3032251 108.0669915  33.0287118 100.2802939 108.1657602  32.0769001
 100.6132888 108.9135066  33.3504284 102.9619629 110.1246070  37.1433732
 103.9162883 110.0930013  37.0763664 102.7632153 109.6636694  37.9583958
 103.5519011 108.6947186  39.7104530 104.3711900 109.1891265  39.7339367
 103.8255819 107.7779154  39.6822097  98.8053925 103.0285320  40.4096727
  99.4512789 102.5184274  40.8983952  98.5971077 103.7654002  40.9840152
 111.1409655  93.8868141  30.4166560 110.3742051  93.3326628  30.5623242
 111.5520360  93.9590010  31.2780711 103.1451416 100.1752937  44.5071741
 104.0082878  99.8189742  44.7175066 102.5716827  99.8366832  45.1947145
  48.1718733  -2.5182983  30.7705418  48.7158637  -1.9053024  30.2760372
  47.5905578  -1.9603404  31.2872431  51.4947528  -3.0586929  30.1066739
  50.7043071  -3.0762790  29.5671238  51.2580882  -2.5198635  30.8615775
  46.2944792  -4.8723216  32.6334174  47.1635952  -4.6982564  32.2720809
  45.8151543  -4.0528799  32.5109903  57.9537268   6.8365410  22.0379449
  58.5915678   6.7172157  21.3342789  57.8358111   7.7846254  22.0967401
  54.7626974   6.7892838  21.9740973  54.4245486   6.6733903  21.0861508
  55.6316742   6.3884003  21.9541980  55.2446757   7.9427690  27.9327179
  55.2335398   7.5480488  27.0607683  55.4067396   7.2093762  28.5260950
  51.9654018  10.7264802  26.8806363  51.6743884  11.6310433  26.7653029
  52.6011002  10.7681329  27.5950432  52.8910225   8.1041650  23.4707723
  53.4873797   7.8797673  22.7564686  52.9485197   7.3626396  24.0733170
  62.9086963   4.4992097  20.0165635  63.6412135   3.9291314  20.2503465
  62.1526319   4.1113698  20.4572141  60.4312384  -1.7886329  24.4760244
  60.0995708  -0.9190918  24.2521459  59.8357997  -2.1050045  25.1554274
  56.9243903  10.4126217  23.8756157  56.6244626  11.3151256  23.7671964
  56.5794963  10.1458400  24.7277309  60.3241047   2.9308757  21.5553594
  59.4157924   2.8624166  21.2612355  60.2728643   3.4080702  22.3835419
  51.9064683  17.1770538  16.8427124  51.8288713  18.1278363  16.9215605
  51.3026327  16.8316410  17.5002051  54.3981913   4.3498403  29.4988491
  53.6215247   4.9092323  29.4891356  55.0372476   4.8355186  30.0203361
  62.1902693   1.1325196  23.3331468  61.5477074   1.4257729  22.6871262
  61.6857622   1.0178116  24.1384665  52.6528285   7.1583856  29.0606458
  53.3942969   7.6968900  28.7841282  51.9465271   7.7850145  29.2178010
  58.1283625   9.3012997  27.6578620  58.5366981   8.8595407  26.9133252
  57.4060886   8.7265624  27.9112813  54.4814695   4.2385604  25.0312177
  55.3275890   4.6625017  25.1746826  54.4213332   3.5819228  25.7250740
  58.4512439   9.8614187  21.4130909  57.8221302  10.0259902  20.7106976
  58.0638101  10.2755797  22.1841873  62.3301671  10.7968625  18.7675272
  61.6452709  11.1767527  18.2172306  62.4145521  11.4063952  19.5007220
  57.6314140   1.8989972  26.6893350  57.3875072   2.6532032  26.1527626
  57.9074071   2.2775320  27.5240597  59.5852603   8.4428584  25.3670616
  59.7969498   9.0860344  24.6904997  59.5382351   7.6090901  24.8992546
  50.8964482   9.1460077  21.6160757  51.4665839   9.5747345  20.9778241
  51.4872594   8.8642662  22.3144943  51.3889649   4.3123505  29.8621768
  50.7588309   4.9939785  30.0957165  51.2825737   4.2006586  28.9174906
  60.6998431  11.3200540  23.5392973  61.5215875  10.9180727  23.2575655
  60.6960834  11.2168774  24.4909089  54.4655034  10.8684583  25.6953684
  54.5299467  11.3304990  26.5311856  53.7565958  10.2381948  25.8235994
  68.7904424   7.6639288  19.8877945  68.0368132   7.0946686  19.7321949
  68.9251965   7.6301953  20.8348579  50.6670392  -1.3855730  32.2247019
  50.2737337  -1.9389531  32.8994663  51.4836532  -1.0745151  32.6153537
  53.5838353   0.0302149  29.8167276  54.3248066   0.6309303  29.7371738
  53.8156275  -0.7120213  29.2585318  48.7279691   5.2158517  28.0945506
  48.6133206   4.3143774  28.3952604  47.8724208   5.4622213  27.7430322
  55.8071528  13.1576257  29.6933006  55.3635382  12.3712636  29.3753911
  56.4688742  13.3455408  29.0276897  50.5658649  14.6872059  24.2193685
  51.1166075  14.5589122  23.4470679  49.7270125  14.9866948  23.8688577
  57.9052766  13.4379057  27.7214407  57.8871242  14.2587938  27.2294677
  58.8272686  13.3133132  27.9464549  54.3625821  10.9523186  28.5637916
  54.8954157  10.1911475  28.3337224  53.8339902  10.6596838  29.3062070
  60.7071379   8.2758199  21.1923774  60.0495054   8.9657461  21.2803903
  61.5111778   8.6654631  21.5357760  59.5176838   6.6302572  19.2427716
  60.0308720   7.2632564  19.7449426  60.1678062   6.0303768  18.8771076
  60.2838634  11.6108574  17.3706858  59.8300961  10.7699483  17.4272049
  59.6532601  12.2469972  17.7081639  58.7271574  13.4485070  18.3056677
  59.0194548  14.0090127  17.5869042  59.2370194  13.7413631  19.0609836
  53.6905199  14.2265421  19.3950130  53.6481377  14.4526268  18.4658662
  54.6067898  13.9928796  19.5435931  57.1370832   4.6949489  26.2930759
  57.4920220   4.9220962  27.1525225  57.7842964   5.0267866  25.6708014
  62.8937949   9.8844452  22.0091360  63.3274456   9.7919741  22.8574414
  63.6069530   9.8601952  21.3711376  56.6265844  13.4846546  23.5424460
  56.6802866  14.0537482  24.3102176  55.7580625  13.6548431  23.1778497
  63.7553499   9.9268152  24.5424245  63.9489389  10.8313963  24.7883520
  63.6554117   9.4675571  25.3762830  55.4089809  -0.1873957  27.0414572
  54.7617724   0.5115993  26.9479049  56.1790825   0.2462187  27.4090820
  58.8168607  10.0774895  30.1165126  58.6654114   9.8485447  29.1995209
  58.8073287  11.0345497  30.1296471  55.5853944   7.6506808  25.1011392
  56.5146004   7.8017968  24.9280359  55.1644974   7.7390829  24.2460039
  54.3842275  11.6757472  22.8709930  54.2453361  11.3076257  23.7435868
  53.5956872  12.1905112  22.6993887  55.9347491  11.0539075  20.2598767
  55.5997323  11.0139845  21.1556417  55.4351436  10.3883791  19.7869178
  49.9091735   6.4606705  25.7851349  49.7711533   5.7286944  26.3862888
  50.8196658   6.3715605  25.5035536  52.5374035   6.1726664  25.2735028
  53.2473654   5.5319857  25.2321647  52.4943343   6.4239559  26.1961209
  60.5260814  13.1094018  28.1941607  60.4673360  12.4253238  27.5272190
  60.9280332  13.8513008  27.7422233  51.2502969   3.1591882  27.0930668
  50.7140326   2.7082621  27.7452264  50.6619678   3.2937791  26.3501132
  49.5451513  19.9255932  20.9875326  49.7848111  20.5574456  21.6654345
  48.7020709  19.5743972  21.2740686  60.5278221  11.0733602  26.4255587
  59.6405000  10.7359523  26.5481986  61.0976772  10.3416633  26.6624352
  54.0579375  15.7335054  23.3916830  53.9849546  16.5390025  23.9036135
  53.6156768  15.9327020  22.5664852  53.8469154  14.9706824  16.9019652
  53.0636676  15.5128504  16.9957876  54.5461899  15.4880804  17.3013893
  65.0095562   6.4841819  21.1872149  64.9985438   7.3666534  20.8166082
  64.1412941   6.1313370  20.9926686  56.5178058  15.6321888  25.5474989
  57.2306030  16.2669353  25.4750890  56.0268087  15.7285754  24.7314991
  51.5689972  13.3816331  26.3680560  52.2699431  14.0152814  26.5209954
  51.0985087  13.7231063  25.6076199  59.3691258   5.9360939  24.1933110
  58.7162708   6.1836846  23.5385563  59.7471638   5.1225077  23.8595587
  56.3298431  15.9720632  18.2961280  56.5120826  15.1542288  18.7589033
  57.1531417  16.1888324  17.8586170  56.6640597  14.8988817  15.5576329
  57.1928363  14.3881272  14.9446491  56.9268817  14.5831347  16.4221862
  55.4178831   6.6780750  30.6799147  54.7419468   6.5774879  31.3501522
  56.2406465   6.5219964  31.1435144  47.1657690  12.9152687  23.3011662
  47.7511127  12.1696374  23.4339567  46.9682528  13.2256643  24.1848326
  50.0196345  15.9503934  18.3174105  49.3506720  16.4350062  17.8338145
  49.8809215  16.1973154  19.2317483  54.1601614  17.9847677  24.9156763
  54.7119922  18.1479299  25.6805848  54.5007807  18.5752115  24.2436788
  48.6118379   2.4045960  29.1651682  49.2390418   2.0223037  29.7789206
  47.7546298   2.1860162  29.5307375  59.0112488  12.8108935  30.7705418
  59.5552392  13.4238893  30.2760372  58.4299333  13.3688513  31.2872431
  57.2970001  15.9329653  21.9020445  57.1721140  15.1319393  21.3931391
  57.9549092  16.4275846  21.4134415  59.3604909  13.7338673  23.5299995
  58.4135245  13.6144024  23.4578322  59.7087682  12.8461171  23.6126257
  51.7204483  -0.3767188  27.3538237  52.2438884  -0.1304891  28.1164547
  51.5016816   0.4552847  26.9341375  56.3651342  13.5291389  19.7304348
  56.2176305  12.6008097  19.9111918  57.1904836  13.5511480  19.2461423
  59.9685464  14.3519948  20.8169220  60.8932012  14.1462809  20.6793672
  59.8000768  14.1036349  21.7258562  54.8134592   1.7654828  23.3941226
  54.5552370   2.6871899  23.3925557  54.2819632   1.3685263  24.0841691
  59.7580781  14.8705615  16.1731312  59.9317658  14.3052038  15.4205164
  60.2509672  15.6706510  15.9910802  45.5757740   6.8820285  24.2394871
  45.0311208   7.6580092  24.3715145  46.4537090   7.2291089  24.0813992
  65.6120172   7.6342038  17.7921612  66.0551318   6.8849364  17.3940735
  64.7346682   7.6252175  17.4095344  46.3623762   6.0090181  27.1325028
  45.6205498   6.1572816  27.7189658  46.0416506   6.2698446  26.2691777
  54.3067425  15.5506159  26.9305418  54.6154551  15.3055306  27.8028117
  55.1042907  15.7552797  26.4424288  54.3288037  17.7044069  19.1610794
  53.8893027  17.2120447  19.8543651  55.0796154  17.1617036  18.9202869
  51.7761909  13.2482078  21.2333096  51.1541918  12.5852783  20.9335324
  52.4466776  13.2743210  20.5506744  51.8486437   1.7263866  30.8265602
  51.8974592   2.6025989  30.4443371  52.3908951   1.1841259  30.2537245
  62.3341282  12.2704989  30.1066739  61.5436826  12.2529128  29.5671238
  62.0974637  12.8093283  30.8615775  62.4539157   9.1197455  27.4199467
  62.5037162   8.9547463  28.3614990  62.3453081   8.2524714  27.0297348
  59.7442920   5.1028383  28.7358774  60.6452782   4.9634848  28.4442772
  59.8190894   5.2682838  29.6756952  54.0785725   2.4795238  27.5811960
  53.2089034   2.7728804  27.3094549  54.3145205   3.0635683  28.3019224
  63.9557354  11.5394397  27.6641489  63.6642162  11.9024377  28.5004950
  63.3429485  10.8261405  27.4854821  65.1553036   9.1047277  20.1844059
  65.9899928   9.5437081  20.3481620  65.2912165   8.6285930  19.3652305
  62.2044542   6.6627012  26.1321547  62.6798664   6.8554658  25.3240398
  61.2810108   6.7186197  25.8864931  56.7824759  -1.3025145  25.0977381
  57.3006703  -0.5664118  24.7723869  56.4279892  -0.9961152  25.9324140
  60.9046211   3.5392772  24.3649853  61.8563634   3.6390869  24.3862077
  60.7349662   2.7471040  24.8747937  58.9260591   0.6248355  24.5509253
  58.3310523   0.9053368  23.8555742  58.6410287   1.1142256  25.3225995
  63.3834289   6.7598891  23.4792152  63.3510609   5.8214892  23.6651836
  63.9934913   6.8382928  22.7457977  63.5328778   3.5509935  23.5250435
  63.0167826   2.7668391  23.3380364  64.4168726   3.2228651  23.6896955
  69.2010839   7.8214898  22.6198189  69.9314227   7.5600186  23.1805892
  68.5917784   7.0843620  22.6600257  67.2826136   5.9622761  23.2172640
  66.5559300   5.8278726  22.6089132  66.8673423   6.2699589  24.0229358
  55.1056312   9.6812690  30.9820013  56.0259322   9.8591289  31.1760060
  55.0705896   8.7368736  30.8299712  48.1018385   7.5913725  23.6242794
  48.3204395   8.5230833  23.6430828  48.5144159   7.2321699  24.4097598
  52.9746250   3.1646931  33.0145543  52.8742977   4.1141288  32.9457634
  52.7567792   2.8365170  32.1421613  52.8377520   6.5944070  31.8310605
  52.3544602   7.3944430  32.0374494  52.9238459   6.6052015  30.8778049
  48.7650858  10.4848604  23.8679039  49.7194111  10.4532547  23.8008970
  48.5663381  10.0239228  24.6829265  49.3550240   9.0549720  26.4349836
  50.1743129   9.5493799  26.4584674  49.6287048   8.1381689  26.4067404
  64.9003931   2.1834613  20.5706072  65.4948422   1.9430349  19.8599380
  64.9730515   1.4641744  21.1979608  47.1201087  16.0268224  20.8849237
  46.9855555  15.2668625  20.3187235  46.7033149  16.7509124  20.4178026
  67.2075004   5.4900814  19.3449493  66.6474562   5.5594003  20.1181055
  66.6018507   5.3141798  18.6248989  50.2770213  16.9237541  21.0967679
  50.1602597  17.8682973  20.9946370  49.4562659  16.6211102  21.4853478
  44.6085154   3.3887854  27.1342033  45.2544018   2.8786808  27.6229259
  44.4002305   4.1256536  27.7085459  57.1338546  10.4568702  32.6334174
  58.0029706  10.6309354  32.2720809  56.6545298  11.2763119  32.5109903
  51.3024727  17.5765803  24.3123608  52.2051973  17.6089413  24.6290103
  51.0762097  16.6466254  24.3269943  53.0578329  16.3296789  20.9733686
  52.1073960  16.3298651  20.8598059  53.3610815  15.5829524  20.4569721
  48.9482645   0.5355471  31.2317048  49.8114107   0.1792276  31.4420372
  48.3748056   0.1969366  31.9192452  68.7931022  22.1657328  22.0379449
  69.4309432  22.0464075  21.3342789  68.6751865  23.1138172  22.0967401
  65.6020728  22.1184756  21.9740973  65.2639240  22.0025821  21.0861508
  66.4710497  21.7175921  21.9541980  61.4607544  23.9720232  17.9637864
  60.8972409  23.8810169  17.1954152  61.3459939  23.1520137  18.4440357
  66.0840511  23.2719608  27.9327179  66.0729152  22.8772406  27.0607683
  66.2461151  22.5385680  28.5260950  59.0071976  25.4671424  20.8022085
  59.7993268  25.1262248  20.3868384  59.2468626  25.5766399  21.7224238
  67.0407103  27.6391200  13.2752329  66.3895083  28.2245280  12.8886343
  67.8351466  28.1697395  13.3347367  60.9662730  24.7280337  13.6739464
  61.7393606  24.1809324  13.5352339  61.3188129  25.5924586  13.8853925
  62.8047773  26.0556719  26.8806363  62.5137639  26.9602350  26.7653029
  63.4404757  26.0973247  27.5950432  63.7303979  23.4333568  23.4707723
  64.3267552  23.2089590  22.7564686  63.7878951  22.6918313  24.0733170
  63.3029008  20.8873003  11.3057914  63.5554529  20.3654524  10.5441377
  62.3653567  20.7239149  11.4084597  68.3472291  19.8908782  19.1132657
  69.1335380  19.4728205  18.7623074  68.6110995  20.7954874  19.2814305
  68.5182368  25.3281632  13.8121314  67.8828201  25.4016258  14.5242218
  68.1879774  25.9175231  13.1340393  73.7480718  19.8284015  20.0165635
  74.4805890  19.2583232  20.2503465  72.9920074  19.4405615  20.4572141
  63.0225297  22.7901109  13.5082288  62.9061555  22.1146013  14.1763373
  63.1327556  22.3033483  12.6914442  65.3656838  22.2511256  17.2128978
  65.0015045  21.7241877  17.9241899  66.2223953  21.8609725  17.0395463
  71.2706138  13.5405589  24.4760244  70.9389463  14.4101000  24.2521459
  70.6751752  13.2241873  25.1554274  65.0062325  17.2801156  12.2090326
  65.1736727  18.1481392  12.5760797  64.8159494  17.4428438  11.2851615
  67.7637658  25.7418135  23.8756157  67.4638381  26.6443174  23.7671964
  67.4188717  25.4750318  24.7277309  61.2150139  22.1931932  19.9092861
  60.2900636  22.0608146  20.1170553  61.4634552  22.9726151  20.4062803
  71.1634801  18.2600675  21.5553594  70.2551679  18.1916083  21.2612355
  71.1122397  18.7372620  22.3835419  64.9851545  19.7358813  13.1936993
  64.8651171  20.1815864  14.0322473  64.2904134  20.0844131  12.6350531
  58.5758950  21.8365205  20.7436650  58.7051331  22.0899684  21.6576062
  57.8956402  22.4292913  20.4241305  62.7458437  32.5062455  16.8427124
  62.6682467  33.4570280  16.9215605  62.1420081  32.1608328  17.5002051
  65.2375667  19.6790321  29.4988491  64.4609001  20.2384241  29.4891356
  65.8766230  20.1647104  30.0203361  73.0296448  16.4617113  23.3331468
  72.3870828  16.7549647  22.6871262  72.5251376  16.3470034  24.1384665
  70.6836612  20.2080287  14.0217327  71.5954468  20.4407673  13.8465025
  70.1746259  20.7917331  13.4592406  63.4922040  22.4875774  29.0606458
  64.2336724  23.0260818  28.7841282  62.7859025  23.1142063  29.2178010
  68.9677379  24.6304914  27.6578620  69.3760735  24.1887325  26.9133252
  68.2454641  24.0557542  27.9112813  65.3208449  19.5677521  25.0312177
  66.1669644  19.9916935  25.1746826  65.2607087  18.9111146  25.7250740
  69.2906194  25.1906105  21.4130909  68.6615056  25.3551819  20.7106976
  68.9031856  25.6047715  22.1841873  73.1695426  26.1260543  18.7675272
  72.4846464  26.5059444  18.2172306  73.2539275  26.7355870  19.5007220
  68.4707895  17.2281890  26.6893350  68.2268826  17.9823950  26.1527626
  68.7467825  17.6067237  27.5240597  70.4246357  23.7720502  25.3670616
  70.6363253  24.4152262  24.6904997  70.3776106  22.9382819  24.8992546
  68.0272586  16.3838323  22.2707188  67.1657065  16.6819576  22.5623926
  68.0535021  16.6008722  21.3388221  64.8434156  24.9280513  18.6780994
  65.3072501  25.2068216  17.8885616  64.5790954  24.0263958  18.4954084
  61.7358237  24.4751995  21.6160757  62.3059594  24.9039263  20.9778241
  62.3266349  24.1934579  22.3144943  63.7803042  21.0503666  15.4870559
  64.4827085  21.5024709  15.9544485  63.4483670  20.4087484  16.1150452
  62.2283403  19.6415422  29.8621768  61.5982064  20.3231703  30.0957165
  62.1219491  19.5298504  28.9174906  57.5228376  19.3087218  20.7887692
  56.7327430  19.5644747  20.3127803  58.0139623  20.1235556  20.8939733
  71.5392185  26.6492457  23.5392973  72.3609629  26.2472645  23.2575655
  71.5354588  26.5460692  24.4909089  59.4743121  19.6731797  17.7471169
  58.6774284  19.7850492  18.2654665  59.2468713  20.0118450  16.8812060
  65.3048789  26.1976501  25.6953684  65.3693221  26.6596908  26.5311856
  64.5959713  25.5673866  25.8235994  55.8066079  19.5617709  23.2202683
  56.0574117  20.4464719  23.4860259  56.3425627  19.3822310  22.4477775
  79.6298178  22.9931206  19.8877945  78.8761887  22.4238604  19.7321949
  79.7645720  22.9593870  20.8348579  65.0196806  27.8644608  15.5632664
  64.8842481  28.7096144  15.9917512  65.5606619  28.0663886  14.7998598
  61.5064146  13.9436188  32.2247019  61.1131092  13.3902387  32.8994663
  62.3230286  14.2546767  32.6153537  58.4726204  25.3820046  16.1360589
  58.9850724  26.1763296  16.2866154  59.1248917  24.6846337  16.0694191
  60.2821089  28.4985802  18.2183342  60.4587717  29.4203767  18.0304326
  61.0777922  28.1844222  18.6477722  64.4232107  15.3594067  29.8167276
  65.1641820  15.9601220  29.7371738  64.6550030  14.6171705  29.2585318
  59.5673445  20.5450434  28.0945506  59.4526960  19.6435692  28.3952604
  58.7117963  20.7914131  27.7430322  66.6465283  28.4868175  29.6933006
  66.2029137  27.7004553  29.3753911  67.3082496  28.6747325  29.0276897
  61.4052404  30.0163976  24.2193685  61.9559829  29.8881040  23.4470679
  60.5663880  30.3158865  23.8688577  68.7446521  28.7670975  27.7214407
  68.7264996  29.5879856  27.2294677  69.6666441  28.6425050  27.9464549
  65.2019575  26.2815104  28.5637916  65.7347912  25.5203392  28.3337224
  64.6733656  25.9888756  29.3062070  68.3689270  11.3875170  24.0931557
  68.0253539  12.2776812  24.0170668  68.7368233  11.1976828  23.2301143
  56.4375121  23.7108701  16.9120160  57.2750343  24.1205709  16.6953867
  56.6153388  22.7708143  16.8820354  68.3339553  21.3783781  12.6003993
  67.8186176  22.1488386  12.8392380  68.0616861  20.7048917  13.2237054
  65.9186664  16.2233482  17.6589231  65.0628260  15.8340332  17.4794870
  66.3313615  16.3025443  16.7989017  67.4485810  13.7579825  22.0580791
  66.9450606  13.7209960  21.2448596  67.7416417  14.6672568  22.1177447
  63.6928696  13.8418555  21.0646972  64.5581693  13.6461364  20.7052862
  63.7606205  13.6128907  21.9916329  73.3073827  24.1316136  14.5357166
  72.5303270  23.7927295  14.0912328  73.9865308  24.1368759  13.8612131
  68.1225856  19.2510873  14.4263774  67.8175991  19.5657022  15.2773917
  69.0756298  19.3292293  14.4691107  66.5672288  25.4101097  16.0756728
  66.0393649  24.6753856  15.7629965  66.0659790  26.1875773  15.8296696
  71.5465134  23.6050117  21.1923774  70.8888808  24.2949378  21.2803903
  72.3505533  23.9946549  21.5357760  61.2991015  16.0720763  18.4363339
  61.8734767  15.8495944  17.7036532  61.8861998  16.1409457  19.1891941
  70.3570593  21.9594490  19.2427716  70.8702474  22.5924482  19.7449426
  71.0071816  21.3595685  18.8771076  61.6260602  18.1025224  12.4559225
  60.7897915  18.4399910  12.7768499  61.4865372  17.9674204  11.5186362
  63.6013683  12.9462012  17.1638409  62.9478095  12.6311029  16.5395023
  63.5594157  12.3237752  17.8898232  64.7124888  23.2281307   9.0791701
  63.8051950  22.9970560   9.2782850  65.2095920  22.4318926   9.2665682
  67.6192967  31.9378814  11.9988387  66.9454666  32.2410511  12.6073345
  68.0058789  32.7407894  11.6493844  66.8351423  19.4343945  21.4886056
  65.9173985  19.6558892  21.3307744  67.2511567  19.5090256  20.6297764
  67.6186471  20.8335361  16.6188737  68.3658290  21.3456758  16.3095859
  67.8878061  20.5119414  17.4793130  65.8913121  23.3293902  13.6015691
  64.9824341  23.0452935  13.6988161  65.9208205  23.7492980  12.7418998
  71.1232389  26.9400491  17.3706858  70.6694716  26.0991401  17.4272049
  70.4926355  27.5761890  17.7081639  70.0665308  17.8692477  18.6007526
  69.3288065  17.3569863  18.9317768  70.3192082  17.4292859  17.7890803
  69.5665328  28.7776988  18.3056677  69.8588302  29.3382045  17.5869042
  70.0763949  29.0705549  19.0609836  70.1676936  10.6468729  19.1949295
  70.4735812   9.7866093  18.9075210  70.8929540  11.2386349  18.9948289
  56.4601292  21.0499416  17.5830893  56.2625692  20.4568777  16.8581960
  55.9047956  20.7451626  18.3006832  64.4398015  20.9422522  19.7025486
  64.4946625  19.9896359  19.6267963  63.6289217  21.0981961  20.1866785
  65.5889209  24.8702645  10.9403769  65.1508639  24.1538504  10.4809407
  66.3299650  25.0978760  10.3788861  62.3790375  19.5599582  17.4615865
  61.5658241  19.8593753  17.8681057  62.8749369  19.1655271  18.1790347
  64.5298953  29.5557339  19.3950130  64.4875132  29.7818185  18.4658662
  65.4461652  29.3220714  19.5435931  67.9764587  20.0241407  26.2930759
  68.3313975  20.2512880  27.1525225  68.6236718  20.3559783  25.6708014
  73.7062324  23.1459842  16.9980088  73.5680223  23.3361438  16.0701277
  73.3498543  23.9079225  17.4548139  61.8704450  17.1317938  23.0777100
  62.5103829  16.9906697  22.3800063  61.0381981  16.8452451  22.7015702
  73.7331704  25.2136369  22.0091360  74.1668210  25.1211659  22.8574414
  74.4463284  25.1893870  21.3711376  62.6464754  26.4320368  19.1912093
  63.4405352  25.9370688  18.9894667  61.9356446  25.9038231  18.8279798
  67.4659598  28.8138464  23.5424460  67.5196621  29.3829400  24.3102176
  66.5974380  28.9840349  23.1778497  58.9547517  20.5763450  15.2671845
  58.0245106  20.5147905  15.4841807  59.0504989  20.0539402  14.4708486
  58.8733066  17.1018263  17.8550087  59.1339884  18.0163596  17.7459247
  59.6950239  16.6342705  18.0046700  60.3457992  18.5156020  25.0248911
  61.0181045  18.3073382  24.3761560  59.5187778  18.3178106  24.5854144
  74.5947253  25.2560070  24.5424245  74.7883143  26.1605881  24.7883520
  74.4947871  24.7967489  25.3762830  66.2483564  15.1417961  27.0414572
  65.6011479  15.8407910  26.9479049  67.0184579  15.5754105  27.4090820
  69.6562362  25.4066813  30.1165126  69.5047868  25.1777365  29.1995209
  69.6467041  26.3637414  30.1296471  66.4247698  22.9798726  25.1011392
  67.3539758  23.1309885  24.9280359  66.0038728  23.0682746  24.2460039
  65.2236030  27.0049390  22.8709930  65.0847116  26.6368174  23.7435868
  64.4350626  27.5197029  22.6993887  65.8184182  32.1058486  14.2135466
  65.9935938  31.6346530  15.0281089  65.1316970  32.7324253  14.4416727
  66.7741245  26.3830993  20.2598767  66.4391078  26.3431763  21.1556417
  66.2745191  25.7175709  19.7869178  60.7485489  21.7898623  25.7851349
  60.6105287  21.0578862  26.3862888  61.6590413  21.7007523  25.5035536
  69.7100437  23.7287027  10.5335827  69.0929607  23.0033855  10.4368880
  69.2416925  24.4896387  10.1902901  63.3767790  21.5018582  25.2735028
  64.0867408  20.8611774  25.2321647  63.3337098  21.7531477  26.1961209
  71.3654568  28.4385935  28.1941607  71.3067115  27.7545156  27.5272190
  71.7674087  29.1804925  27.7422233  62.0896724  18.4883800  27.0930668
  61.5534081  18.0374538  27.7452264  61.5013432  18.6229709  26.3501132
  60.3845267  35.2547849  20.9875326  60.6241865  35.8866373  21.6654345
  59.5414464  34.9035889  21.2740686  71.3671976  26.4025519  26.4255587
  70.4798754  26.0651441  26.5481986  71.9370527  25.6708551  26.6624352
  53.0201123  22.7349611  19.7498638  53.7072163  22.4211341  19.1619654
  52.8649251  23.6390976  19.4765890  57.8235845  17.6239808  24.1783662
  57.7394034  17.0165477  23.4434072  57.0018551  18.1148826  24.1793159
  64.8973129  31.0626972  23.3916830  64.8243301  31.8681943  23.9036135
  64.4550522  31.2618937  22.5664852  64.6862909  30.2998742  16.9019652
  63.9030431  30.8420422  16.9957876  65.3855654  30.8172721  17.3013893
  67.9959559  16.1093371  19.5453857  68.4928258  15.3563333  19.2254927
  67.2246540  16.1457688  18.9797067  75.8489316  21.8133737  21.1872149
  75.8379192  22.6958452  20.8166082  74.9806696  21.4605288  20.9926686
  67.3571813  30.9613806  25.5474989  68.0699785  31.5961271  25.4750890
  66.8661841  31.0577672  24.7314991  69.0789339  24.8665058  17.1192281
  68.1445618  24.9866521  16.9496985  69.2566008  23.9637525  16.8552290
  64.5794528  18.2510754  19.2725542  64.2092315  17.6981795  19.9606447
  65.0753620  17.6468888  18.7200542  72.4661891  20.7082378  17.6542315
  72.9322343  21.5410369  17.5802617  72.9169391  20.2427359  18.3587573
  62.4083726  28.7108249  26.3680560  63.1093186  29.3444732  26.5209954
  61.9378841  29.0522981  25.6076199  70.5338122  27.0526199  14.6528467
  70.8097966  26.9382794  15.5622341  69.6642621  26.6543684  14.6140640
  70.4378554  13.0762965  21.6933216  69.5241633  13.3067191  21.8615423
  70.8671655  13.1601409  22.5447248  70.2085012  21.2652857  24.1933110
  69.5556462  21.5128764  23.5385563  70.5865392  20.4516995  23.8595587
  67.1692186  31.3012550  18.2961280  67.3514581  30.4834206  18.7589033
  67.9925172  31.5180242  17.8586170  67.5034351  30.2280735  15.5576329
  68.0322118  29.7173190  14.9446491  67.7662571  29.9123265  16.4221862
  66.2572585  22.0072668  30.6799147  65.5813222  21.9066797  31.3501522
  67.0800219  21.8511881  31.1435144  58.0051444  28.2444604  23.3011662
  58.5904881  27.4988292  23.4339567  57.8076283  28.5548561  24.1848326
  60.8590099  31.2795852  18.3174105  60.1900475  31.7641979  17.8338145
  60.7202969  31.5265072  19.2317483  52.5969099  20.8150204  22.0216106
  52.6353198  20.2813795  22.8153224  52.0909392  20.2885410  21.4027083
  64.9995368  33.3139595  24.9156763  65.5513676  33.4771217  25.6805848
  65.3401561  33.9044033  24.2436788  59.9759861  15.6614745  25.5178648
  60.0401188  16.5229576  25.1056046  59.9126981  15.0488747  24.7851006
  59.4512134  17.7337877  29.1651682  60.0784173  17.3514955  29.7789206
  58.5940053  17.5152079  29.5307375  69.8506242  28.1400853  30.7705418
  70.3946146  28.7530811  30.2760372  69.2693087  28.6980431  31.2872431
  56.2277677  19.5414307  15.0970037  56.5231118  18.6324985  15.0437091
  55.3265712  19.5202046  14.7751039  68.1363755  31.2621571  21.9020445
  68.0114895  30.4611310  21.3931391  68.7942846  31.7567764  21.4134415
  59.7571924  17.6170303  21.0797586  59.0358509  18.2306271  20.9405059
  60.5465179  18.1528068  21.0014232  70.1998664  29.0630591  23.5299995
  69.2528999  28.9435942  23.4578322  70.5481437  28.1753089  23.6126257
  62.5598237  14.9524730  27.3538237  63.0832639  15.1987026  28.1164547
  62.3410570  15.7844764  26.9341375  57.9565518  17.2228404  15.2209362
  57.6278224  16.3425783  15.0384468  58.3104889  17.1676073  16.1085751
  67.2045097  28.8583307  19.7304348  67.0570059  27.9300014  19.9111918
  68.0298590  28.8803398  19.2461423  61.0707341  17.5101374  15.5884840
  61.4103414  18.0387295  14.8663448  61.5179462  17.8481780  16.3643406
  70.8079219  29.6811866  20.8169220  71.7325766  29.4754727  20.6793672
  70.6394522  29.4328267  21.7258562  63.7650782  15.8938425  25.0387908
  63.4247602  15.0946238  25.4408588  63.0589788  16.1940136  24.4664741
  64.4167254  12.9787737  23.4915231  65.2393323  12.5048215  23.3694121
  64.6605317  13.7578221  23.9913917  63.0575488  16.0075996  13.7878133
  63.7783851  16.3857248  13.2841849  62.4340793  16.7264872  13.8913111
  67.2006611  16.7121145  14.7236465  67.4170226  17.5945782  14.4225293
  66.7200678  16.3207358  13.9942107  61.9405833  19.6706858  21.3007210
  61.7950413  19.9847161  22.1931491  61.4631036  20.2891758  20.7478108
  63.8002216  16.6609406  21.3488099  63.7863784  15.7650499  21.0120397
  64.5174644  16.6680070  21.9826385  65.6528346  17.0946746  23.3941226
  65.3946124  18.0163817  23.3925557  65.1213387  16.6977181  24.0841691
  70.5974535  30.1997533  16.1731312  70.7711413  29.6343956  15.4205164
  71.0903426  30.9998428  15.9910802  56.4151495  22.2112202  24.2394871
  55.8704963  22.9872010  24.3715145  57.2930845  22.5583007  24.0813992
  63.2039111  15.5423786  16.6175669  63.3255023  14.6140432  16.8166557
  62.9141154  15.5562472  15.7053985  66.0730302  13.2278697  19.7542389
  66.0951999  13.2918030  18.7994369  66.4898361  12.3883205  19.9482895
  76.4513926  22.9633956  17.7921612  76.8945072  22.2141281  17.3940735
  75.5740436  22.9544092  17.4095344  71.5849707  29.5164298  13.2728210
  72.2800612  30.1370990  13.4915525  71.9272858  28.6659649  13.5480588
  57.2017517  21.3382098  27.1325028  56.4599253  21.4864734  27.7189658
  56.8810261  21.5990364  26.2691777  73.4841131  26.9664003  14.8015541
  74.0092455  27.3051276  14.0764861  73.3963483  26.0311018  14.6178676
  65.1461179  30.8798077  26.9305418  65.4548306  30.6347223  27.8028117
  65.9436661  31.0844715  26.4424288  65.1681791  33.0335986  19.1610794
  64.7286782  32.5412365  19.8543651  65.9189908  32.4908954  18.9202869
  57.6474130  29.2247527  19.1635422  58.4732150  28.9251299  18.7834066
  57.2968182  28.4555150  19.6125211  62.6155664  28.5773995  21.2333096
  61.9935673  27.9144700  20.9335324  63.2860530  28.6035127  20.5506744
  55.8482735  27.1433854  20.1224356  55.0114644  26.7156028  19.9408357
  55.8206381  27.3366297  21.0595147  62.6880191  17.0555783  30.8265602
  62.7368346  17.9317906  30.4443371  63.2302705  16.5133176  30.2537245
  73.1735037  27.5996907  30.1066739  72.3830580  27.5821046  29.5671238
  72.9368391  28.1385200  30.8615775  73.2932912  24.4489373  27.4199467
  73.3430917  24.2839381  28.3614990  73.1846835  23.5816632  27.0297348
  62.1769170  27.1277919  14.7091556  62.3257291  27.8113383  14.0558229
  62.9835614  27.1083009  15.2241012  70.5836674  20.4320301  28.7358774
  71.4846537  20.2926766  28.4442772  70.6584649  20.5974756  29.6756952
  64.9179479  17.8087156  27.5811960  64.0482789  18.1020722  27.3094549
  65.1538960  18.3927601  28.3019224  74.7951109  26.8686315  27.6641489
  74.5035917  27.2316295  28.5004950  74.1823240  26.1553323  27.4854821
  75.9946791  24.4339194  20.1844059  76.8293682  24.8728998  20.3481620
  76.1305920  23.9577848  19.3652305  73.0438297  21.9918929  26.1321547
  73.5192418  22.1846576  25.3240398  72.1203862  22.0478115  25.8864931
  59.9321803  23.1543096  15.7152625  59.6867845  22.2505426  15.9132835
  60.1017718  23.1560247  14.7732103  67.6218513  14.0266773  25.0977381
  68.1400457  14.7627800  24.7723869  67.2673646  14.3330766  25.9324140
  59.2017451  18.8871454  13.2138787  58.5086696  18.9615809  12.5578823
  58.9569203  18.1231798  13.7360304  67.8731107  10.4467055  20.6178277
  68.1532861   9.7790244  21.2438704  68.6581714  10.6396151  20.1052941
  65.6764576  29.6226049  12.1803304  65.1038543  30.2416236  11.7273776
  66.2497370  30.1725411  12.7143226  71.7439966  18.8684689  24.3649853
  72.6957389  18.9682787  24.3862077  71.5743416  18.0762958  24.8747937
  69.7654345  15.9540273  24.5509253  69.1704277  16.2345285  23.8555742
  69.4804042  16.4434173  25.3225995  68.8961836  29.9063199  13.3111886
  69.8292509  29.8408761  13.5144762  68.8085049  30.7419466  12.8526419
  71.5249852  29.2229070  10.2715834  71.4463484  28.8888933  11.1651592
  72.3459519  29.7150838  10.2707306  74.2228044  22.0890809  23.4792152
  74.1904364  21.1506810  23.6651836  74.8328667  22.1674846  22.7457977
  66.0611374  20.9586862   9.5219356  67.0070479  20.8293070   9.5907774
  65.6825619  20.2201524   9.9988784  74.3722532  18.8801852  23.5250435
  73.8561581  18.0960309  23.3380364  75.2562481  18.5520569  23.6896955
  72.0333259  12.6242868  19.4846248  71.8358080  12.3157956  20.3689580
  72.6432965  13.3504507  19.6144178  80.0404593  23.1506816  22.6198189
  80.7707982  22.8892104  23.1805892  79.4311539  22.4135538  22.6600257
  78.1219891  21.2914678  23.2172640  77.3953054  21.1570643  22.6089132
  77.7067177  21.5991507  24.0229358  65.9450067  25.0104608  30.9820013
  66.8653076  25.1883207  31.1760060  65.9099650  24.0660653  30.8299712
  55.1632232  20.2043202  19.9073288  54.8435016  19.3508510  19.6147662
  54.6165660  20.4191780  20.6631255  58.9412140  22.9205643  23.6242794
  59.1598149  23.8522751  23.6430828  59.3537913  22.5613617  24.4097598
  65.8616357  13.4273728  15.6118483  65.0517086  13.0820813  15.9873729
  66.5500774  13.1181272  16.2006094  67.7906906  12.5051775  17.2342779
  68.3437944  12.9247228  17.8932803  68.0276992  11.5787523  17.2765735
  63.8140005  18.4938849  33.0145543  63.7136732  19.4433205  32.9457634
  63.5961547  18.1657087  32.1421613  55.0320492  23.8246113  21.8766409
  54.3383963  23.4100066  21.3636364  55.7793483  23.8666650  21.2799828
  71.1685713  14.6152300  16.7421444  70.5884382  15.2737104  16.3599496
  70.9021645  13.7929645  16.3308861  69.6189279  14.0157358  18.9442764
  70.1189057  14.1273892  18.1357083  70.2624887  13.7118411  19.5843572
  63.6771275  21.9235987  31.8310605  63.1938357  22.7236347  32.0374494
  63.7632214  21.9343932  30.8778049  56.9457235  23.7564367  19.7532424
  56.9227923  23.8552054  18.8014307  57.2557871  24.6029518  20.0749590
  59.6044612  25.8140522  23.8679039  60.5587866  25.7824464  23.8008970
  59.4057136  25.3531146  24.6829265  60.1943995  24.3841638  26.4349836
  61.0136884  24.8785717  26.4584674  60.4680802  23.4673606  26.4067404
  69.9510591  16.7752390  15.7977792  69.0636446  17.0602041  15.5797987
  70.3664580  16.6146154  14.9505069  73.3025127  16.7998911  19.5132131
  74.0785517  17.2895364  19.7856748  72.5773261  17.2256966  19.9704001
  75.7397685  17.5126531  20.5706072  76.3342176  17.2722267  19.8599380
  75.8124269  16.7933661  21.1979608  57.9594841  31.3560142  20.8849237
  57.8249309  30.5960542  20.3187235  57.5426903  32.0801041  20.4178026
  69.0953804  26.5397065   9.8925812  69.7989654  26.7447068  10.5083468
  68.3716453  27.1073827  10.1574895  69.9251614  22.2906926  16.0128082
  69.8686816  22.7475478  15.1735714  70.4779957  21.5297611  15.8350925
  73.7356420  18.0796658  16.8378202  73.4793355  17.6793294  17.6686409
  73.1109288  18.7940452  16.7128341  78.0468758  20.8192731  19.3449493
  77.4868316  20.8885921  20.1181055  77.4412262  20.6433716  18.6248989
  61.1163967  32.2529459  21.0967679  60.9996351  33.1974891  20.9946370
  60.2956413  31.9503020  21.4853478  71.0040502  26.9779594  11.9424272
  71.8386106  26.5460793  11.7601747  70.8424845  26.8061608  12.8701166
  70.6586394  23.4811708  13.3080611  70.6035198  23.3155979  12.3669055
  70.0332449  24.1887741  13.4642801  55.4478909  18.7179772  27.1342033
  56.0937772  18.2078726  27.6229259  55.2396060  19.4548454  27.7085459
  67.9732301  25.7860619  32.6334174  68.8423461  25.9601272  32.2720809
  67.4939052  26.6055036  32.5109903  62.1418481  32.9057720  24.3123608
  63.0445728  32.9381331  24.6290103  61.9155851  31.9758171  24.3269943
  63.8972083  31.6588707  20.9733686  62.9467714  31.6590569  20.8598059
  64.2004569  30.9121442  20.4569721  67.7834639   9.5762593  17.1411866
  67.0167035   9.0221080  17.2868549  68.1945344   9.6484462  18.0026018
  59.7876400  15.8647389  31.2317048  60.6507861  15.5084194  31.4420372
  59.2141810  15.5261284  31.9192452  79.6324777  37.4949245  22.0379449
  80.2703187  37.3755993  21.3342789  79.5145620  38.4430089  22.0967401
  76.4414483  37.4476674  21.9740973  76.1032994  37.3317738  21.0861508
  77.3104251  37.0467839  21.9541980  72.3001299  39.3012150  17.9637864
  71.7366164  39.2102087  17.1954152  72.1853694  38.4812054  18.4440357
  76.9234266  38.6011525  27.9327179  76.9122907  38.2064324  27.0607683
  77.0854905  37.8677598  28.5260950  69.8465731  40.7963342  20.8022085
  70.6387023  40.4554166  20.3868384  70.0862381  40.9058317  21.7224238
  77.8800857  42.9683118  13.2752329  77.2288837  43.5537198  12.8886343
  78.6745220  43.4989313  13.3347367  71.8056485  40.0572255  13.6739464
  72.5787361  39.5101242  13.5352339  72.1581883  40.9216504  13.8853925
  73.6441527  41.3848637  26.8806363  73.3531393  42.2894268  26.7653029
  74.2798511  41.4265165  27.5950432  74.5697734  38.7625486  23.4707723
  75.1661306  38.5381508  22.7564686  74.6272705  38.0210231  24.0733170
  74.1422762  36.2164921  11.3057914  74.3948283  35.6946442  10.5441377
  73.2047321  36.0531066  11.4084597  79.1866045  35.2200699  19.1132657
  79.9729134  34.8020122  18.7623074  79.4504749  36.1246791  19.2814305
  79.3576123  40.6573550  13.8121314  78.7221956  40.7308176  14.5242218
  79.0273529  41.2467148  13.1340393  84.5874472  35.1575932  20.0165635
  85.3199644  34.5875149  20.2503465  83.8313828  34.7697533  20.4572141
  73.8619051  38.1193027  13.5082288  73.7455309  37.4437930  14.1763373
  73.9721311  37.6325401  12.6914442  76.2050592  37.5803174  17.2128978
  75.8408799  37.0533795  17.9241899  77.0617708  37.1901643  17.0395463
  82.1099893  28.8697507  24.4760244  81.7783217  29.7392918  24.2521459
  81.5145506  28.5533791  25.1554274  75.8456079  32.6093074  12.2090326
  76.0130481  33.4773310  12.5760797  75.6553248  32.7720355  11.2851615
  78.6031412  41.0710053  23.8756157  78.3032135  41.9735091  23.7671964
  78.2582472  40.8042236  24.7277309  72.0543894  37.5223849  19.9092861
  71.1294390  37.3900063  20.1170553  72.3028307  38.3018069  20.4062803
  82.0028556  33.5892593  21.5553594  81.0945433  33.5208001  21.2612355
  81.9516152  34.0664538  22.3835419  75.8245300  35.0650731  13.1936993
  75.7044925  35.5107782  14.0322473  75.1297888  35.4136049  12.6350531
  69.4152705  37.1657123  20.7436650  69.5445086  37.4191602  21.6576062
  68.7350156  37.7584831  20.4241305  73.5852192  47.8354373  16.8427124
  73.5076222  48.7862198  16.9215605  72.9813836  47.4900245  17.5002051
  76.0769422  35.0082238  29.4988491  75.3002756  35.5676158  29.4891356
  76.7159985  35.4939021  30.0203361  83.8690202  31.7909031  23.3331468
  83.2264583  32.0841564  22.6871262  83.3645131  31.6761951  24.1384665
  81.5230366  35.5372204  14.0217327  82.4348222  35.7699591  13.8465025
  81.0140013  36.1209249  13.4592406  74.3315794  37.8167692  29.0606458
  75.0730478  38.3552736  28.7841282  73.6252780  38.4433980  29.2178010
  79.8071134  39.9596832  27.6578620  80.2154490  39.5179243  26.9133252
  79.0848395  39.3849460  27.9112813  76.1602204  34.8969439  25.0312177
  77.0063399  35.3208852  25.1746826  76.1000841  34.2403063  25.7250740
  80.1299948  40.5198023  21.4130909  79.5008811  40.6843737  20.7106976
  79.7425610  40.9339632  22.1841873  84.0089180  41.4552461  18.7675272
  83.3240218  41.8351362  18.2172306  84.0933030  42.0647787  19.5007220
  79.3101649  32.5573807  26.6893350  79.0662581  33.3115868  26.1527626
  79.5861580  32.9359155  27.5240597  81.2640112  39.1012420  25.3670616
  81.4757007  39.7444180  24.6904997  81.2169860  38.2674736  24.8992546
  78.8666341  31.7130240  22.2707188  78.0050820  32.0111494  22.5623926
  78.8928775  31.9300639  21.3388221  75.6827910  40.2572431  18.6780994
  76.1466256  40.5360134  17.8885616  75.4184708  39.3555875  18.4954084
  72.5751991  39.8043912  21.6160757  73.1453348  40.2331181  20.9778241
  73.1660103  39.5226497  22.3144943  74.6196796  36.3795583  15.4870559
  75.3220840  36.8316627  15.9544485  74.2877425  35.7379402  16.1150452
  73.0677158  34.9707340  29.8621768  72.4375818  35.6523621  30.0957165
  72.9613246  34.8590421  28.9174906  68.3622130  34.6379136  20.7887692
  67.5721184  34.8936664  20.3127803  68.8533378  35.4527474  20.8939733
  82.3785940  41.9784375  23.5392973  83.2003384  41.5764562  23.2575655
  82.3748343  41.8752609  24.4909089  70.3136876  35.0023715  17.7471169
  69.5168039  35.1142409  18.2654665  70.0862468  35.3410367  16.8812060
  76.1442543  41.5268418  25.6953684  76.2086976  41.9888826  26.5311856
  75.4353467  40.8965783  25.8235994  66.6459833  34.8909626  23.2202683
  66.8967872  35.7756636  23.4860259  67.1819382  34.7114228  22.4477775
  90.4691933  38.3223124  19.8877945  89.7155641  37.7530522  19.7321949
  90.6039474  38.2885788  20.8348579  75.8590561  43.1936526  15.5632664
  75.7236236  44.0388062  15.9917512  76.4000373  43.3955803  14.7998598
  72.3457901  29.2728106  32.2247019  71.9524846  28.7194304  32.8994663
  73.1624041  29.5838684  32.6153537  69.3119958  40.7111964  16.1360589
  69.8244479  41.5055214  16.2866154  69.9642671  40.0138254  16.0694191
  71.1214843  43.8277720  18.2183342  71.2981471  44.7495685  18.0304326
  71.9171677  43.5136139  18.6477722  75.2625862  30.6885985  29.8167276
  76.0035575  31.2893138  29.7371738  75.4943784  29.9463623  29.2585318
  70.4067200  35.8742352  28.0945506  70.2920715  34.9727609  28.3952604
  69.5511717  36.1206049  27.7430322  77.4859037  43.8160092  29.6933006
  77.0422891  43.0296471  29.3753911  78.1476251  44.0039243  29.0276897
  72.2446158  45.3455894  24.2193685  72.7953584  45.2172957  23.4470679
  71.4057634  45.6450783  23.8688577  79.5840275  44.0962892  27.7214407
  79.5658751  44.9171773  27.2294677  80.5060195  43.9716968  27.9464549
  76.0413330  41.6107022  28.5637916  76.5741666  40.8495310  28.3337224
  75.5127411  41.3180674  29.3062070  79.2083024  26.7167088  24.0931557
  78.8647294  27.6068729  24.0170668  79.5761987  26.5268745  23.2301143
  67.2768875  39.0400618  16.9120160  68.1144097  39.4497627  16.6953867
  67.4547143  38.1000060  16.8820354  79.1733307  36.7075699  12.6003993
  78.6579931  37.4780303  12.8392380  78.9010616  36.0340835  13.2237054
  76.7580418  31.5525400  17.6589231  75.9022015  31.1632250  17.4794870
  77.1707370  31.6317360  16.7989017  78.2879565  29.0871743  22.0580791
  77.7844360  29.0501878  21.2448596  78.5810172  29.9964486  22.1177447
  74.5322451  29.1710473  21.0646972  75.3975448  28.9753281  20.7052862
  74.5999960  28.9420824  21.9916329  84.1467581  39.4608053  14.5357166
  83.3697024  39.1219213  14.0912328  84.8259062  39.4660677  13.8612131
  78.9619610  34.5802791  14.4263774  78.6569746  34.8948940  15.2773917
  79.9150052  34.6584211  14.4691107  77.4066042  40.7393014  16.0756728
  76.8787404  40.0045774  15.7629965  76.9053545  41.5167691  15.8296696
  82.3858888  38.9342035  21.1923774  81.7282563  39.6241296  21.2803903
  83.1899287  39.3238467  21.5357760  72.1384770  31.4012681  18.4363339
  72.7128522  31.1787862  17.7036532  72.7255752  31.4701375  19.1891941
  81.1964347  37.2886407  19.2427716  81.7096229  37.9216399  19.7449426
  81.8465571  36.6887603  18.8771076  72.4654357  33.4317142  12.4559225
  71.6291669  33.7691828  12.7768499  72.3259127  33.2966121  11.5186362
  74.4407438  28.2753929  17.1638409  73.7871850  27.9602947  16.5395023
  74.3987912  27.6529670  17.8898232  75.5518642  38.5573225   9.0791701
  74.6445704  38.3262478   9.2782850  76.0489674  37.7610844   9.2665682
  78.4586721  47.2670732  11.9988387  77.7848420  47.5702428  12.6073345
  78.8452543  48.0699812  11.6493844  77.6745178  34.7635863  21.4886056
  76.7567739  34.9850810  21.3307744  78.0905322  34.8382173  20.6297764
  78.4580226  36.1627279  16.6188737  79.2052045  36.6748676  16.3095859
  78.7271815  35.8411331  17.4793130  76.7306876  38.6585819  13.6015691
  75.8218095  38.3744852  13.6988161  76.7601960  39.0784898  12.7418998
  81.9626143  42.2692409  17.3706858  81.5088470  41.4283319  17.4272049
  81.3320110  42.9053807  17.7081639  80.9059063  33.1984395  18.6007526
  80.1681820  32.6861781  18.9317768  81.1585836  32.7584777  17.7890803
  80.4059082  44.1068906  18.3056677  80.6982057  44.6673963  17.5869042
  80.9157703  44.3997467  19.0609836  81.0070690  25.9760647  19.1949295
  81.3129567  25.1158010  18.9075210  81.7323295  26.5678267  18.9948289
  67.2995046  36.3791334  17.5830893  67.1019446  35.7860694  16.8581960
  66.7441710  36.0743544  18.3006832  75.2791770  36.2714440  19.7025486
  75.3340380  35.3188276  19.6267963  74.4682972  36.4273879  20.1866785
  76.4282964  40.1994563  10.9403769  75.9902394  39.4830422  10.4809407
  77.1693404  40.4270678  10.3788861  73.2184130  34.8891500  17.4615865
  72.4051995  35.1885670  17.8681057  73.7143124  34.4947189  18.1790347
  75.3692708  44.8849257  19.3950130  75.3268886  45.1110103  18.4658662
  76.2855407  44.6512631  19.5435931  78.8158341  35.3533324  26.2930759
  79.1707729  35.5804797  27.1525225  79.4630473  35.6851701  25.6708014
  84.5456078  38.4751760  16.9980088  84.4073977  38.6653356  16.0701277
  84.1892297  39.2371143  17.4548139  72.7098205  32.4609855  23.0777100
  73.3497584  32.3198614  22.3800063  71.8775735  32.1744369  22.7015702
  84.5725458  40.5428287  22.0091360  85.0061965  40.4503576  22.8574414
  85.2857039  40.5185788  21.3711376  73.4858508  41.7612286  19.1912093
  74.2799107  41.2662606  18.9894667  72.7750201  41.2330149  18.8279798
  78.3053353  44.1430381  23.5424460  78.3590375  44.7121318  24.3102176
  77.4368134  44.3132266  23.1778497  69.7941272  35.9055367  15.2671845
  68.8638860  35.8439823  15.4841807  69.8898744  35.3831320  14.4708486
  69.7126821  32.4310180  17.8550087  69.9733638  33.3455513  17.7459247
  70.5343993  31.9634623  18.0046700  71.1851746  33.8447937  25.0248911
  71.8574800  33.6365300  24.3761560  70.3581533  33.6470023  24.5854144
  85.4341008  40.5851988  24.5424245  85.6276898  41.4897798  24.7883520
  85.3341626  40.1259407  25.3762830  77.0877318  30.4709878  27.0414572
  76.4405233  31.1699828  26.9479049  77.8578334  30.9046022  27.4090820
  80.4956116  40.7358731  30.1165126  80.3441623  40.5069282  29.1995209
  80.4860796  41.6929332  30.1296471  77.2641453  38.3090643  25.1011392
  78.1933513  38.4601803  24.9280359  76.8432483  38.3974664  24.2460039
  76.0629784  42.3341308  22.8709930  75.9240870  41.9660092  23.7435868
  75.2744381  42.8488947  22.6993887  76.6577936  47.4350404  14.2135466
  76.8329692  46.9638447  15.0281089  75.9710724  48.0616170  14.4416727
  77.6135000  41.7122910  20.2598767  77.2784832  41.6723680  21.1556417
  77.1138945  41.0467626  19.7869178  71.5879244  37.1190540  25.7851349
  71.4499041  36.3870779  26.3862888  72.4984167  37.0299440  25.5035536
  80.5494191  39.0578945  10.5335827  79.9323362  38.3325773  10.4368880
  80.0810680  39.8188305  10.1902901  74.2161544  36.8310500  25.2735028
  74.9261163  36.1903692  25.2321647  74.1730852  37.0823395  26.1961209
  82.2048323  43.7677853  28.1941607  82.1460869  43.0837073  27.5272190
  82.6067841  44.5096843  27.7422233  72.9290478  33.8175718  27.0930668
  72.3927835  33.3666456  27.7452264  72.3407187  33.9521626  26.3501132
  71.2239022  50.5839767  20.9875326  71.4635620  51.2158291  21.6654345
  70.3808218  50.2327807  21.2740686  72.3392737  33.2764369   9.6557131
  71.4622203  33.1553170   9.2919378  72.8150490  32.4850447   9.4036020
  82.2065730  41.7317437  26.4255587  81.3192509  41.3943359  26.5481986
  82.7764281  41.0000468  26.6624352  63.8594877  38.0641529  19.7498638
  64.5465917  37.7503259  19.1619654  63.7043006  38.9682893  19.4765890
  68.6629599  32.9531725  24.1783662  68.5787788  32.3457395  23.4434072
  67.8412306  33.4440744  24.1793159  75.7366884  46.3918889  23.3916830
  75.6637055  47.1973861  23.9036135  75.2944277  46.5910855  22.5664852
  75.5256663  45.6290659  16.9019652  74.7424185  46.1712340  16.9957876
  76.2249408  46.1464639  17.3013893  78.8353313  31.4385289  19.5453857
  79.3322013  30.6855251  19.2254927  78.0640295  31.4749605  18.9797067
  86.6883071  37.1425654  21.1872149  86.6772947  38.0250370  20.8166082
  85.8200450  36.7897205  20.9926686  78.1965567  46.2905723  25.5474989
  78.9093539  46.9253188  25.4750890  77.7055596  46.3869589  24.7314991
  79.9183094  40.1956976  17.1192281  78.9839373  40.3158439  16.9496985
  80.0959762  39.2929443  16.8552290  75.4188282  33.5802672  19.2725542
  75.0486070  33.0273712  19.9606447  75.9147375  32.9760805  18.7200542
  83.3055645  36.0374295  17.6542315  83.7716098  36.8702287  17.5802617
  83.7563146  35.5719277  18.3587573  73.2477481  44.0400167  26.3680560
  73.9486940  44.6736650  26.5209954  72.7772596  44.3814898  25.6076199
  81.3731876  42.3818117  14.6528467  81.6491720  42.2674711  15.5622341
  80.5036375  41.9835601  14.6140640  81.2772308  28.4054882  21.6933216
  80.3635388  28.6359109  21.8615423  81.7065410  28.4893326  22.5447248
  81.0478767  36.5944774  24.1933110  80.3950217  36.8420682  23.5385563
  81.4259146  35.7808912  23.8595587  78.0085940  46.6304467  18.2961280
  78.1908335  45.8126123  18.7589033  78.8318926  46.8472160  17.8586170
  78.3428106  45.5572653  15.5576329  78.8715872  45.0465107  14.9446491
  78.6056326  45.2415183  16.4221862  77.0966340  37.3364585  30.6799147
  76.4206977  37.2358715  31.3501522  77.9193973  37.1803799  31.1435144
  68.8445199  43.5736522  23.3011662  69.4298635  42.8280210  23.4339567
  68.6470037  43.8840479  24.1848326  71.6983854  46.6087769  18.3174105
  71.0294229  47.0933897  17.8338145  71.5596724  46.8556990  19.2317483
  63.4362853  36.1442122  22.0216106  63.4746953  35.6105713  22.8153224
  62.9303146  35.6177328  21.4027083  75.8389122  48.6431513  24.9156763
  76.3907431  48.8063134  25.6805848  76.1795316  49.2335951  24.2436788
  70.8153616  30.9906663  25.5178648  70.8794942  31.8521493  25.1056046
  70.7520736  30.3780664  24.7851006  70.2905888  33.0629795  29.1651682
  70.9177927  32.6806872  29.7789206  69.4333807  32.8443997  29.5307375
  80.6899997  43.4692770  30.7705418  81.2339901  44.0822729  30.2760372
  80.1086842  44.0272349  31.2872431  67.0671431  34.8706224  15.0970037
  67.3624872  33.9616903  15.0437091  66.1659467  34.8493964  14.7751039
  78.9757510  46.5913488  21.9020445  78.8508649  45.7903228  21.3931391
  79.6336601  47.0859682  21.4134415  70.5965678  32.9462221  21.0797586
  69.8752264  33.5598189  20.9405059  71.3858934  33.4819986  21.0014232
  81.0392418  44.3922508  23.5299995  80.0922754  44.2727860  23.4578322
  81.3875191  43.5045006  23.6126257  73.3991992  30.2816647  27.3538237
  73.9226393  30.5278944  28.1164547  73.1804325  31.1136682  26.9341375
  68.7959273  32.5520322  15.2209362  68.4671979  31.6717701  15.0384468
  69.1498643  32.4967991  16.1085751  78.0438851  44.1875225  19.7304348
  77.8963814  43.2591932  19.9111918  78.8692345  44.2095315  19.2461423
  71.9101096  32.8393292  15.5884840  72.2497168  33.3679213  14.8663448
  72.3573216  33.1773698  16.3643406  81.6472973  45.0103783  20.8169220
  82.5719521  44.8046645  20.6793672  81.4788277  44.7620185  21.7258562
  74.6044537  31.2230342  25.0387908  74.2641357  30.4238155  25.4408588
  73.8983543  31.5232053  24.4664741  75.2561008  28.3079655  23.4915231
  76.0787078  27.8340133  23.3694121  75.4999072  29.0870139  23.9913917
  73.8969243  31.3367913  13.7878133  74.6177605  31.7149166  13.2841849
  73.2734547  32.0556790  13.8913111  78.0400366  32.0413062  14.7236465
  78.2563980  32.9237700  14.4225293  77.5594433  31.6499276  13.9942107
  72.7799587  34.9998775  21.3007210  72.6344168  35.3139079  22.1931491
  72.3024791  35.6183676  20.7478108  74.6395970  31.9901323  21.3488099
  74.6257539  31.0942417  21.0120397  75.3568398  31.9971987  21.9826385
  76.4922101  32.4238664  23.3941226  76.2339879  33.3455734  23.3925557
  75.9607141  32.0269098  24.0841691  81.4368290  45.5289451  16.1731312
  81.6105167  44.9635873  15.4205164  81.9297181  46.3290346  15.9910802
  67.2545249  37.5404120  24.2394871  66.7098717  38.3163928  24.3715145
  68.1324599  37.8874924  24.0813992  74.0432866  30.8715704  16.6175669
  74.1648777  29.9432350  16.8166557  73.7534908  30.8854390  15.7053985
  76.9124056  28.5570614  19.7542389  76.9345753  28.6209947  18.7994369
  77.3292115  27.7175123  19.9482895  87.2907681  38.2925874  17.7921612
  87.7338827  37.5433199  17.3940735  86.4134191  38.2836010  17.4095344
  82.4243462  44.8456215  13.2728210  83.1194367  45.4662908  13.4915525
  82.7666612  43.9951566  13.5480588  68.0411271  36.6674016  27.1325028
  67.2993007  36.8156652  27.7189658  67.7204015  36.9282282  26.2691777
  84.3234885  42.2955921  14.8015541  84.8486209  42.6343193  14.0764861
  84.2357238  41.3602936  14.6178676  75.9854934  46.2089994  26.9305418
  76.2942060  45.9639141  27.8028117  76.7830416  46.4136633  26.4424288
  76.0075546  48.3627904  19.1610794  75.5680536  47.8704283  19.8543651
  76.7583663  47.8200872  18.9202869  68.4867885  44.5539445  19.1635422
  69.3125905  44.2543217  18.7834066  68.1361937  43.7847067  19.6125211
  73.4549418  43.9065913  21.2333096  72.8329427  43.2436618  20.9335324
  74.1254285  43.9327045  20.5506744  66.6876490  42.4725771  20.1224356
  65.8508398  42.0447946  19.9408357  66.6600135  42.6658215  21.0595147
  73.5273946  32.3847701  30.8265602  73.5762101  33.2609824  30.4443371
  74.0696460  31.8425094  30.2537245  84.0128791  42.9288824  30.1066739
  83.2224335  42.9112963  29.5671238  83.7762146  43.4677118  30.8615775
  84.1326666  39.7781291  27.4199467  84.1824671  39.6131298  28.3614990
  84.0240590  38.9108550  27.0297348  73.0162925  42.4569836  14.7091556
  73.1651045  43.1405301  14.0558229  73.8229368  42.4374927  15.2241012
  81.4230429  35.7612219  28.7358774  82.3240291  35.6218684  28.4442772
  81.4978403  35.9266674  29.6756952  75.7573234  33.1379074  27.5811960
  74.8876543  33.4312640  27.3094549  75.9932714  33.7219519  28.3019224
  85.6344863  42.1978232  27.6641489  85.3429671  42.5608213  28.5004950
  85.0216994  41.4845241  27.4854821  86.8340545  39.7631112  20.1844059
  87.6687437  40.2020916  20.3481620  86.9699674  39.2869765  19.3652305
  83.8832051  37.3210847  26.1321547  84.3586173  37.5138493  25.3240398
  82.9597617  37.3770033  25.8864931  70.7715558  38.4835014  15.7152625
  70.5261600  37.5797344  15.9132835  70.9411472  38.4852165  14.7732103
  78.4612268  29.3558690  25.0977381  78.9794212  30.0919717  24.7723869
  78.1067401  29.6622684  25.9324140  70.0411205  34.2163372  13.2138787
  69.3480450  34.2907727  12.5578823  69.7962957  33.4523715  13.7360304
  78.7124862  25.7758973  20.6178277  78.9926616  25.1082162  21.2438704
  79.4975469  25.9688069  20.1052941  76.5158330  44.9517967  12.1803304
  75.9432298  45.5708154  11.7273776  77.0891124  45.5017329  12.7143226
  82.5833720  34.1976607  24.3649853  83.5351143  34.2974705  24.3862077
  82.4137171  33.4054876  24.8747937  80.6048100  31.2832190  24.5509253
  80.0098032  31.5637203  23.8555742  80.3197796  31.7726091  25.3225995
  79.7355590  45.2355117  13.3111886  80.6686263  45.1700679  13.5144762
  79.6478803  46.0711384  12.8526419  82.3643607  44.5520987  10.2715834
  82.2857238  44.2180851  11.1651592  83.1853274  45.0442755  10.2707306
  85.0621798  37.4182727  23.4792152  85.0298118  36.4798727  23.6651836
  85.6722422  37.4966763  22.7457977  76.9005129  36.2878780   9.5219356
  77.8464234  36.1584988   9.5907774  76.5219374  35.5493442   9.9988784
  85.2116287  34.2093770  23.5250435  84.6955335  33.4252227  23.3380364
  86.0956235  33.8812487  23.6896955  82.8727013  27.9534786  19.4846248
  82.6751835  27.6449874  20.3689580  83.4826719  28.6796425  19.6144178
  90.8798348  38.4798734  22.6198189  91.6101736  38.2184022  23.1805892
  90.2705293  37.7427455  22.6600257  88.9613645  36.6206596  23.2172640
  88.2346809  36.4862561  22.6089132  88.5460932  36.9283425  24.0229358
  76.7843821  40.3396526  30.9820013  77.7046831  40.5175125  31.1760060
  76.7493405  39.3952571  30.8299712  75.0848046  34.2128756   9.4574241
  74.1779501  33.9161869   9.5336955  75.3624027  33.9158574   8.5908528
  66.0025986  35.5335119  19.9073288  65.6828771  34.6800428  19.6147662
  65.4559415  35.7483698  20.6631255  69.7805894  38.2497560  23.6242794
  69.9991904  39.1814668  23.6430828  70.1931668  37.8905535  24.4097598
  76.7010112  28.7565646  15.6118483  75.8910840  28.4112731  15.9873729
  77.3894529  28.4473189  16.2006094  78.6300660  27.8343693  17.2342779
  79.1831699  28.2539146  17.8932803  78.8670746  26.9079441  17.2765735
  74.6533759  33.8230766  33.0145543  74.5530486  34.7725123  32.9457634
  74.4355301  33.4949005  32.1421613  73.8546831  31.0715691   9.5986221
  74.7165995  31.3970590   9.8582038  74.0397175  30.2847187   9.0859286
  65.8714246  39.1538031  21.8766409  65.1777718  38.7391984  21.3636364
  66.6187237  39.1958567  21.2799828  82.0079467  29.9444218  16.7421444
  81.4278136  30.6029022  16.3599496  81.7415400  29.1221562  16.3308861
  80.4583034  29.3449275  18.9442764  80.9582812  29.4565810  18.1357083
  81.1018641  29.0410328  19.5843572  74.5165029  37.2527905  31.8310605
  74.0332111  38.0528265  32.0374494  74.6025968  37.2635850  30.8778049
  67.7850989  39.0856285  19.7532424  67.7621677  39.1843972  18.8014307
  68.0951625  39.9321436  20.0749590  70.4438367  41.1432440  23.8679039
  71.3981620  41.1116382  23.8008970  70.2450890  40.6823063  24.6829265
  71.0337749  39.7133556  26.4349836  71.8530638  40.2077634  26.4584674
  71.3074557  38.7965524  26.4067404  80.7904345  32.1044308  15.7977792
  79.9030200  32.3893959  15.5797987  81.2058334  31.9438071  14.9505069
  84.1418881  32.1290829  19.5132131  84.9179271  32.6187282  19.7856748
  83.4167016  32.5548883  19.9704001  86.5791440  32.8418448  20.5706072
  87.1735931  32.6014184  19.8599380  86.6518024  32.1225579  21.1979608
  68.7988596  46.6852059  20.8849237  68.6643064  45.9252460  20.3187235
  68.3820658  47.4092959  20.4178026  79.9347559  41.8688983   9.8925812
  80.6383409  42.0738985  10.5083468  79.2110207  42.4365745  10.1574895
  80.7645369  37.6198844  16.0128082  80.7080570  38.0767395  15.1735714
  81.3173711  36.8589529  15.8350925  84.5750175  33.4088576  16.8378202
  84.3187109  33.0085212  17.6686409  83.9503043  34.1232370  16.7128341
  88.8862513  36.1484649  19.3449493  88.3262071  36.2177838  20.1181055
  88.2806016  35.9725634  18.6248989  71.9557722  47.5821376  21.0967679
  71.8390106  48.5266809  20.9946370  71.1350168  47.2794938  21.4853478
  81.8434256  42.3071512  11.9424272  82.6779860  41.8752710  11.7601747
  81.6818599  42.1353526  12.8701166  81.4980148  38.8103625  13.3080611
  81.4428952  38.6447897  12.3669055  80.8726204  39.5179658  13.4642801
  66.2872663  34.0471690  27.1342033  66.9331527  33.5370644  27.6229259
  66.0789814  34.7840371  27.7085459  78.8126055  41.1152537  32.6334174
  79.6817215  41.2893189  32.2720809  78.3332807  41.9346954  32.5109903
  74.8076274  28.3111734  12.8865930  74.7954944  29.2553574  13.0434201
  75.6999696  28.1281880  12.5925391  72.9812236  48.2349638  24.3123608
  73.8839482  48.2673248  24.6290103  72.7549606  47.3050089  24.3269943
  74.7365838  46.9880625  20.9733686  73.7861469  46.9882486  20.8598059
  75.0398324  46.2413359  20.4569721  78.6228393  24.9054511  17.1411866
  77.8560789  24.3512998  17.2868549  79.0339098  24.9776380  18.0026018
  70.6270154  31.1939307  31.2317048  71.4901616  30.8376112  31.4420372
  70.0535565  30.8553202  31.9192452  90.4718531  52.8241163  22.0379449
  91.1096941  52.7047910  21.3342789  90.3539374  53.7722007  22.0967401
  87.2808237  52.7768591  21.9740973  86.9426749  52.6609656  21.0861508
  88.1498006  52.3759756  21.9541980  83.1395053  54.6304068  17.9637864
  82.5759918  54.5394005  17.1954152  83.0247448  53.8103972  18.4440357
  87.7628020  53.9303443  27.9327179  87.7516661  53.5356241  27.0607683
  87.9248660  53.1969516  28.5260950  80.6859485  56.1255259  20.8022085
  81.4780777  55.7846084  20.3868384  80.9256135  56.2350234  21.7224238
  88.7194612  58.2975035  13.2752329  88.0682592  58.8829116  12.8886343
  89.5138975  58.8281230  13.3347367  82.6450239  55.3864172  13.6739464
  83.4181115  54.8393160  13.5352339  82.9975638  56.2508422  13.8853925
  84.4835282  56.7140555  26.8806363  84.1925148  57.6186186  26.7653029
  85.1192266  56.7557082  27.5950432  85.4091488  54.0917403  23.4707723
  86.0055061  53.8673426  22.7564686  85.4666460  53.3502149  24.0733170
  84.9816517  51.5456839  11.3057914  85.2342038  51.0238360  10.5441377
  84.0441076  51.3822984  11.4084597  90.0259800  50.5492617  19.1132657
  90.8122889  50.1312040  18.7623074  90.2898504  51.4538709  19.2814305
  90.1969877  55.9865467  13.8121314  89.5615710  56.0600094  14.5242218
  89.8667283  56.5759066  13.1340393  95.4268227  50.4867850  20.0165635
  96.1593399  49.9167067  20.2503465  94.6707582  50.0989451  20.4572141
  84.7012806  53.4484945  13.5082288  84.5849064  52.7729848  14.1763373
  84.8115065  52.9617318  12.6914442  87.0444347  52.9095092  17.2128978
  86.6802554  52.3825713  17.9241899  87.9011462  52.5193561  17.0395463
  92.9493647  44.1989424  24.4760244  92.6176972  45.0684835  24.2521459
  92.3539261  43.8825708  25.1554274  86.6849833  47.9384991  12.2090326
  86.8524236  48.8065228  12.5760797  86.4947003  48.1012273  11.2851615
  89.4425167  56.4001970  23.8756157  89.1425890  57.3027009  23.7671964
  89.0976226  56.1334153  24.7277309  82.8937648  52.8515767  19.9092861
  81.9688145  52.7191981  20.1170553  83.1422061  53.6309986  20.4062803
  92.8422310  48.9184510  21.5553594  91.9339188  48.8499919  21.2612355
  92.7909906  49.3956455  22.3835419  86.6639054  50.3942649  13.1936993
  86.5438680  50.8399700  14.0322473  85.9691643  50.7427966  12.6350531
  80.2546459  52.4949041  20.7436650  80.3838840  52.7483520  21.6576062
  79.5743910  53.0876749  20.4241305  84.4245946  63.1646291  16.8427124
  84.3469976  64.1154116  16.9215605  83.8207590  62.8192163  17.5002051
  86.9163176  50.3374156  29.4988491  86.1396510  50.8968076  29.4891356
  87.5553739  50.8230939  30.0203361  94.7083957  47.1200949  23.3331468
  94.0658337  47.4133482  22.6871262  94.2038885  47.0053869  24.1384665
  92.3624121  50.8664122  14.0217327  93.2741977  51.0991509  13.8465025
  91.8533768  51.4501166  13.4592406  85.1709549  53.1459609  29.0606458
  85.9124233  53.6844653  28.7841282  84.4646534  53.7725898  29.2178010
  90.6464888  55.2888750  27.6578620  91.0548244  54.8471160  26.9133252
  89.9242150  54.7141377  27.9112813  86.9995958  50.2261357  25.0312177
  87.8457153  50.6500770  25.1746826  86.9394596  49.5694981  25.7250740
  90.9693703  55.8489940  21.4130909  90.3402565  56.0135655  20.7106976
  90.5819365  56.2631550  22.1841873  94.8482935  56.7844378  18.7675272
  94.1633973  57.1643280  18.2172306  94.9326784  57.3939705  19.5007220
  90.1495404  47.8865725  26.6893350  89.9056335  48.6407785  26.1527626
  90.4255334  48.2651073  27.5240597  92.1033866  54.4304337  25.3670616
  92.3150762  55.0736097  24.6904997  92.0563615  53.5966654  24.8992546
  89.7060095  47.0422158  22.2707188  88.8444574  47.3403412  22.5623926
  89.7322530  47.2592557  21.3388221  86.5221665  55.5864349  18.6780994
  86.9860010  55.8652052  17.8885616  86.2578463  54.6847793  18.4954084
  83.4145746  55.1335830  21.6160757  83.9847103  55.5623098  20.9778241
  84.0053858  54.8518415  22.3144943  85.4590551  51.7087501  15.4870559
  86.1614594  52.1608545  15.9544485  85.1271179  51.0671320  16.1150452
  83.9070912  50.2999258  29.8621768  83.2769573  50.9815538  30.0957165
  83.8007000  50.1882339  28.9174906  79.2015885  49.9671054  20.7887692
  78.4114939  50.2228582  20.3127803  79.6927132  50.7819391  20.8939733
  93.2179694  57.3076293  23.5392973  94.0397138  56.9056480  23.2575655
  93.2142097  57.2044527  24.4909089  81.1530630  50.3315633  17.7471169
  80.3561793  50.4434327  18.2654665  80.9256222  50.6702285  16.8812060
  86.9836298  56.8560336  25.6953684  87.0480730  57.3180743  26.5311856
  86.2747222  56.2257701  25.8235994  77.4853588  50.2201544  23.2202683
  77.7361626  51.1048554  23.4860259  78.0213136  50.0406146  22.4477775
 101.3085687  53.6515041  19.8877945 100.5549396  53.0822439  19.7321949
 101.4433229  53.6177706  20.8348579  86.6984315  58.5228444  15.5632664
  86.5629990  59.3679979  15.9917512  87.2394128  58.7247721  14.7998598
  83.1851655  44.6020023  32.2247019  82.7918601  44.0486222  32.8994663
  84.0017795  44.9130602  32.6153537  80.1513713  56.0403882  16.1360589
  80.6638233  56.8347132  16.2866154  80.8036426  55.3430172  16.0694191
  81.9608597  59.1569638  18.2183342  82.1375226  60.0787603  18.0304326
  82.7565431  58.8428057  18.6477722  86.1019616  46.0177902  29.8167276
  86.8429329  46.6185056  29.7371738  86.3337539  45.2755540  29.2585318
  81.2460954  51.2034270  28.0945506  81.1314469  50.3019527  28.3952604
  80.3905472  51.4497966  27.7430322  88.3252792  59.1452010  29.6933006
  87.8816646  58.3588389  29.3753911  88.9870005  59.3331161  29.0276897
  83.0839913  60.6747812  24.2193685  83.6347338  60.5464875  23.4470679
  82.2451389  60.9742701  23.8688577  90.4234030  59.4254810  27.7214407
  90.4052505  60.2463691  27.2294677  91.3453950  59.3008885  27.9464549
  86.8807084  56.9398939  28.5637916  87.4135421  56.1787228  28.3337224
  86.3521165  56.6472591  29.3062070  90.0476779  42.0459005  24.0931557
  89.7041048  42.9360647  24.0170668  90.4155742  41.8560663  23.2301143
  78.1162630  54.3692536  16.9120160  78.9537852  54.7789544  16.6953867
  78.2940897  53.4291978  16.8820354  90.0127062  52.0367617  12.6003993
  89.4973685  52.8072221  12.8392380  89.7404370  51.3632753  13.2237054
  87.5974173  46.8817317  17.6589231  86.7415769  46.4924168  17.4794870
  88.0101124  46.9609278  16.7989017  89.1273319  44.4163661  22.0580791
  88.6238115  44.3793796  21.2448596  89.4203926  45.3256403  22.1177447
  85.3716205  44.5002390  21.0646972  86.2369202  44.3045199  20.7052862
  85.4393714  44.2712742  21.9916329  94.9861336  54.7899971  14.5357166
  94.2090779  54.4511131  14.0912328  95.6652817  54.7952594  13.8612131
  89.8013365  49.9094709  14.4263774  89.4963500  50.2240858  15.2773917
  90.7543807  49.9876129  14.4691107  88.2459797  56.0684932  16.0756728
  87.7181158  55.3337692  15.7629965  87.7447299  56.8459608  15.8296696
  93.2252643  54.2633952  21.1923774  92.5676317  54.9533214  21.2803903
  94.0293042  54.6530384  21.5357760  82.9778524  46.7304598  18.4363339
  83.5522276  46.5079780  17.7036532  83.5649507  46.7993293  19.1891941
  92.0358102  52.6178325  19.2427716  92.5489983  53.2508317  19.7449426
  92.6859325  52.0179521  18.8771076  83.3048111  48.7609059  12.4559225
  82.4685424  49.0983746  12.7768499  83.1652881  48.6258039  11.5186362
  85.2801192  43.6045847  17.1638409  84.6265604  43.2894864  16.5395023
  85.2381666  42.9821588  17.8898232  86.3912397  53.8865142   9.0791701
  85.4839459  53.6554396   9.2782850  86.8883429  53.0902761   9.2665682
  89.2980476  62.5962649  11.9988387  88.6242175  62.8994346  12.6073345
  89.6846298  63.3991730  11.6493844  88.5138932  50.0927781  21.4886056
  87.5961494  50.3142728  21.3307744  88.9299076  50.1674091  20.6297764
  89.2973980  51.4919196  16.6188737  90.0445799  52.0040594  16.3095859
  89.5665570  51.1703249  17.4793130  87.5700630  53.9877737  13.6015691
  86.6611850  53.7036770  13.6988161  87.5995714  54.4076816  12.7418998
  92.8019898  57.5984327  17.3706858  92.3482225  56.7575236  17.4272049
  92.1713864  58.2345725  17.7081639  91.7452817  48.5276313  18.6007526
  91.0075574  48.0153699  18.9317768  91.9979591  48.0876694  17.7890803
  91.2452837  59.4360823  18.3056677  91.5375811  59.9965880  17.5869042
  91.7551458  59.7289384  19.0609836  91.8464445  41.3052565  19.1949295
  92.1523321  40.4449928  18.9075210  92.5717049  41.8970185  18.9948289
  78.1388801  51.7083251  17.5830893  77.9413201  51.1152612  16.8581960
  77.5835465  51.4035461  18.3006832  86.1185524  51.6006358  19.7025486
  86.1734134  50.6480194  19.6267963  85.3076726  51.7565797  20.1866785
  87.2676718  55.5286481  10.9403769  86.8296148  54.8122340  10.4809407
  88.0087159  55.7562596  10.3788861  84.0577884  50.2183417  17.4615865
  83.2445750  50.5177588  17.8681057  84.5536878  49.8239106  18.1790347
  86.2086462  60.2141174  19.3950130  86.1662641  60.4402021  18.4658662
  87.1249161  59.9804549  19.5435931  89.6552096  50.6825242  26.2930759
  90.0101484  50.9096715  27.1525225  90.3024227  51.0143619  25.6708014
  95.3849833  53.8043678  16.9980088  95.2467731  53.9945274  16.0701277
  95.0286052  54.5663061  17.4548139  83.5491959  47.7901773  23.0777100
  84.1891338  47.6490532  22.3800063  82.7169490  47.5036286  22.7015702
  95.4119213  55.8720205  22.0091360  95.8455719  55.7795494  22.8574414
  96.1250793  55.8477705  21.3711376  84.3252263  57.0904203  19.1912093
  85.1192861  56.5954523  18.9894667  83.6143955  56.5622066  18.8279798
  89.1447107  59.4722299  23.5424460  89.1984130  60.0413235  24.3102176
  88.2761889  59.6424184  23.1778497  80.6335026  51.2347285  15.2671845
  79.7032615  51.1731741  15.4841807  80.7292498  50.7123238  14.4708486
  80.5520575  47.7602098  17.8550087  80.8127393  48.6747431  17.7459247
  81.3737748  47.2926540  18.0046700  82.0245501  49.1739855  25.0248911
  82.6968554  48.9657217  24.3761560  81.1975287  48.9761941  24.5854144
  96.2734762  55.9143905  24.5424245  96.4670652  56.8189716  24.7883520
  96.1735380  55.4551325  25.3762830  87.9271073  45.8001796  27.0414572
  87.2798988  46.4991746  26.9479049  88.6972088  46.2337940  27.4090820
  91.3349871  56.0650648  30.1165126  91.1835377  55.8361200  29.1995209
  91.3254550  57.0221250  30.1296471  88.1035207  53.6382561  25.1011392
  89.0327267  53.7893721  24.9280359  87.6826237  53.7266582  24.2460039
  86.9023539  57.6633225  22.8709930  86.7634625  57.2952010  23.7435868
  86.1138135  58.1780865  22.6993887  87.4971691  62.7642322  14.2135466
  87.6723447  62.2930365  15.0281089  86.8104479  63.3908088  14.4416727
  88.4528754  57.0414828  20.2598767  88.1178587  57.0015598  21.1556417
  87.9532700  56.3759544  19.7869178  82.4272998  52.4482458  25.7851349
  82.2892796  51.7162697  26.3862888  83.3377922  52.3591358  25.5035536
  91.3887946  54.3870862  10.5335827  90.7717116  53.6617691  10.4368880
  90.9204434  55.1480223  10.1902901  85.0555299  52.1602417  25.2735028
  85.7654917  51.5195610  25.2321647  85.0124607  52.4115312  26.1961209
  93.0442077  59.0969771  28.1941607  92.9854624  58.4128991  27.5272190
  93.4461596  59.8388761  27.7422233  83.7684233  49.1467635  27.0930668
  83.2321590  48.6958374  27.7452264  83.1800941  49.2813544  26.3501132
  82.0632776  65.9131685  20.9875326  82.3029374  66.5450209  21.6654345
  81.2201973  65.5619725  21.2740686  83.1786492  48.6056287   9.6557131
  82.3015958  48.4845087   9.2919378  83.6544245  47.8142365   9.4036020
  93.0459485  57.0609355  26.4255587  92.1586263  56.7235276  26.5481986
  93.6158036  56.3292386  26.6624352  74.6988632  53.3933446  19.7498638
  75.3859672  53.0795176  19.1619654  74.5436760  54.2974811  19.4765890
  79.5023354  48.2823643  24.1783662  79.4181543  47.6749313  23.4434072
  78.6806060  48.7732661  24.1793159  86.5760638  61.7210807  23.3916830
  86.5030810  62.5265779  23.9036135  86.1338031  61.9202773  22.5664852
  86.3650418  60.9582577  16.9019652  85.5817940  61.5004257  16.9957876
  87.0643163  61.4756557  17.3013893  89.6747068  46.7677207  19.5453857
  90.1715767  46.0147169  19.2254927  88.9034049  46.8041523  18.9797067
  97.5276825  52.4717572  21.1872149  97.5166701  53.3542287  20.8166082
  96.6594205  52.1189123  20.9926686  89.0359322  61.6197641  25.5474989
  89.7487294  62.2545106  25.4750890  88.5449350  61.7161507  24.7314991
  90.7576848  55.5248894  17.1192281  89.8233127  55.6450356  16.9496985
  90.9353517  54.6221360  16.8552290  86.2582037  48.9094589  19.2725542
  85.8879824  48.3565630  19.9606447  86.7541129  48.3052723  18.7200542
  94.1449400  51.3666213  17.6542315  94.6109852  52.1994205  17.5802617
  94.5956900  50.9011195  18.3587573  84.0871235  59.3692085  26.3680560
  84.7880695  60.0028567  26.5209954  83.6166350  59.7106816  25.6076199
  92.2125631  57.7110034  14.6528467  92.4885475  57.5966629  15.5622341
  91.3430130  57.3127519  14.6140640  92.1166063  43.7346800  21.6933216
  91.2029142  43.9651027  21.8615423  92.5459164  43.8185244  22.5447248
  91.8872521  51.9236692  24.1933110  91.2343971  52.1712599  23.5385563
  92.2652901  51.1100830  23.8595587  88.8479695  61.9596385  18.2961280
  89.0302089  61.1418041  18.7589033  89.6712681  62.1764077  17.8586170
  89.1821860  60.8864570  15.5576329  89.7109627  60.3757025  14.9446491
  89.4450080  60.5707100  16.4221862  87.9360094  52.6656503  30.6799147
  87.2600731  52.5650632  31.3501522  88.7587728  52.5095717  31.1435144
  79.6838953  58.9028440  23.3011662  80.2692390  58.1572127  23.4339567
  79.4863792  59.2132396  24.1848326  82.5377608  61.9379687  18.3174105
  81.8687984  62.4225815  17.8338145  82.3990478  62.1848907  19.2317483
  74.2756608  51.4734040  22.0216106  74.3140707  50.9397630  22.8153224
  73.7696901  50.9469245  21.4027083  86.6782877  63.9723430  24.9156763
  87.2301185  64.1355052  25.6805848  87.0189070  64.5627868  24.2436788
  81.6547370  46.3198580  25.5178648  81.7188697  47.1813411  25.1056046
  81.5914490  45.7072582  24.7851006  81.1299643  48.3921713  29.1651682
  81.7571682  48.0098790  29.7789206  80.2727562  48.1735915  29.5307375
  91.5293751  58.7984688  30.7705418  92.0733655  59.4114646  30.2760372
  90.9480596  59.3564266  31.2872431  77.9065185  50.1998142  15.0970037
  78.2018627  49.2908820  15.0437091  77.0053221  50.1785881  14.7751039
  89.8151264  61.9205406  21.9020445  89.6902404  61.1195146  21.3931391
  90.4730355  62.4151599  21.4134415  81.4359432  48.2754138  21.0797586
  80.7146018  48.8890106  20.9405059  82.2252688  48.8111903  21.0014232
  91.8786173  59.7214426  23.5299995  90.9316508  59.6019777  23.4578322
  92.2268946  58.8336924  23.6126257  84.2385746  45.6108565  27.3538237
  84.7620148  45.8570862  28.1164547  84.0198079  46.4428600  26.9341375
  79.6353027  47.8812240  15.2209362  79.3065733  47.0009619  15.0384468
  79.9892398  47.8259908  16.1085751  88.8832606  59.5167142  19.7304348
  88.7357568  58.5883850  19.9111918  89.7086099  59.5387233  19.2461423
  82.7494850  48.1685209  15.5884840  83.0890923  48.6971131  14.8663448
  83.1966971  48.5065616  16.3643406  92.4866728  60.3395701  20.8169220
  93.4113275  60.1338562  20.6793672  92.3182031  60.0912102  21.7258562
  85.4438291  46.5522260  25.0387908  85.1035111  45.7530073  25.4408588
  84.7377297  46.8523971  24.4664741  86.0954763  43.6371573  23.4915231
  86.9180832  43.1632051  23.3694121  86.3392826  44.4162056  23.9913917
  84.7362997  46.6659831  13.7878133  85.4571360  47.0441084  13.2841849
  84.1128301  47.3848708  13.8913111  88.8794120  47.3704980  14.7236465
  89.0957735  48.2529618  14.4225293  88.3988187  46.9791193  13.9942107
  83.6193342  50.3290693  21.3007210  83.4737922  50.6430996  22.1931491
  83.1418545  50.9475593  20.7478108  85.4789725  47.3193241  21.3488099
  85.4651293  46.4234334  21.0120397  86.1962153  47.3263905  21.9826385
  87.3315855  47.7530581  23.3941226  87.0733633  48.6747652  23.3925557
  86.8000896  47.3561016  24.0841691  92.2762044  60.8581368  16.1731312
  92.4498922  60.2927791  15.4205164  92.7690935  61.6582263  15.9910802
  78.0939004  52.8696038  24.2394871  77.5492472  53.6455846  24.3715145
  78.9718354  53.2166842  24.0813992  84.8826620  46.2007621  16.6175669
  85.0042532  45.2724268  16.8166557  84.5928663  46.2146307  15.7053985
  87.7517811  43.8862532  19.7542389  87.7739508  43.9501865  18.7994369
  88.1685870  43.0467041  19.9482895  98.1301435  53.6217791  17.7921612
  98.5732581  52.8725117  17.3940735  97.2527945  53.6127928  17.4095344
  93.2637216  60.1748133  13.2728210  93.9588121  60.7954826  13.4915525
  93.6060367  59.3243484  13.5480588  78.8805026  51.9965934  27.1325028
  78.1386762  52.1448569  27.7189658  78.5597770  52.2574199  26.2691777
  95.1628640  57.6247838  14.8015541  95.6879964  57.9635111  14.0764861
  95.0750992  56.6894854  14.6178676  86.8248688  61.5381912  26.9305418
  87.1335815  61.2931059  27.8028117  87.6224170  61.7428551  26.4424288
  86.8469300  63.6919822  19.1610794  86.4074291  63.1996200  19.8543651
  87.5977417  63.1492789  18.9202869  79.3261639  59.8831363  19.1635422
  80.1519659  59.5835134  18.7834066  78.9755691  59.1138985  19.6125211
  84.2943173  59.2357831  21.2333096  83.6723182  58.5728536  20.9335324
  84.9648039  59.2618963  20.5506744  77.5270244  57.8017689  20.1224356
  76.6902153  57.3739863  19.9408357  77.4993890  57.9950132  21.0595147
  84.3667700  47.7139619  30.8265602  84.4155855  48.5901742  30.4443371
  84.9090214  47.1717012  30.2537245  94.8522546  58.2580742  30.1066739
  94.0618089  58.2404881  29.5671238  94.6155900  58.7969036  30.8615775
  94.9720421  55.1073208  27.4199467  95.0218426  54.9423216  28.3614990
  94.8634344  54.2400467  27.0297348  83.8556679  57.7861754  14.7091556
  84.0044800  58.4697219  14.0558229  84.6623123  57.7666844  15.2241012
  92.2624183  51.0904136  28.7358774  93.1634046  50.9510601  28.4442772
  92.3372158  51.2558591  29.6756952  86.5966988  48.4670991  27.5811960
  85.7270298  48.7604557  27.3094549  86.8326469  49.0511436  28.3019224
  96.4738618  57.5270150  27.6641489  96.1823426  57.8900130  28.5004950
  95.8610749  56.8137158  27.4854821  97.6734300  55.0923030  20.1844059
  98.5081191  55.5312834  20.3481620  97.8093429  54.6161683  19.3652305
  94.7225806  52.6502765  26.1321547  95.1979927  52.8430411  25.3240398
  93.7991371  52.7061950  25.8864931  81.6109312  53.8126932  15.7152625
  81.3655354  52.9089262  15.9132835  81.7805227  53.8144082  14.7732103
  89.3006022  44.6850608  25.0977381  89.8187966  45.4211635  24.7723869
  88.9461155  44.9914601  25.9324140  80.8804960  49.5455289  13.2138787
  80.1874205  49.6199644  12.5578823  80.6356712  48.7815633  13.7360304
  89.5518616  41.1050891  20.6178277  89.8320370  40.4374080  21.2438704
  90.3369223  41.2979986  20.1052941  87.3552085  60.2809885  12.1803304
  86.7826052  60.9000072  11.7273776  87.9284879  60.8309246  12.7143226
  93.4227475  49.5268525  24.3649853  94.3744898  49.6266622  24.3862077
  93.2530925  48.7346793  24.8747937  91.4441854  46.6124108  24.5509253
  90.8491786  46.8929121  23.8555742  91.1591551  47.1018009  25.3225995
  90.5749345  60.5647035  13.3111886  91.5080018  60.4992596  13.5144762
  90.4872558  61.4003302  12.8526419  93.2037361  59.8812905  10.2715834
  93.1250993  59.5472769  11.1651592  94.0247028  60.3734673  10.2707306
  95.9015553  52.7474644  23.4792152  95.8691873  51.8090645  23.6651836
  96.5116176  52.8258681  22.7457977  87.7398883  51.6170697   9.5219356
  88.6857988  51.4876905   9.5907774  87.3613128  50.8785359   9.9988784
  96.0510041  49.5385688  23.5250435  95.5349090  48.7544144  23.3380364
  96.9349990  49.2104404  23.6896955  93.7120768  43.2826703  19.4846248
  93.5145589  42.9741792  20.3689580  94.3220474  44.0088342  19.6144178
 101.7192102  53.8090651  22.6198189 102.4495491  53.5475939  23.1805892
 101.1099048  53.0719373  22.6600257  99.8007400  51.9498514  23.2172640
  99.0740563  51.8154479  22.6089132  99.3854686  52.2575342  24.0229358
  87.6237576  55.6688443  30.9820013  88.5440585  55.8467042  31.1760060
  87.5887159  54.7244489  30.8299712  85.9241801  49.5420674   9.4574241
  85.0173256  49.2453786   9.5336955  86.2017782  49.2450492   8.5908528
  76.8419741  50.8627037  19.9073288  76.5222525  50.0092345  19.6147662
  76.2953169  51.0775615  20.6631255  80.6199649  53.5789478  23.6242794
  80.8385658  54.5106586  23.6430828  81.0325422  53.2197453  24.4097598
  87.5403866  44.0857563  15.6118483  86.7304595  43.7404648  15.9873729
  88.2288283  43.7765107  16.2006094  89.4694415  43.1635610  17.2342779
  90.0225453  43.5831064  17.8932803  89.7064501  42.2371358  17.2765735
  85.4927514  49.1522684  33.0145543  85.3924241  50.1017041  32.9457634
  85.2749056  48.8240923  32.1421613  84.6940585  46.4007609   9.5986221
  85.5559749  46.7262507   9.8582038  84.8790929  45.6139105   9.0859286
  76.7108001  54.4829949  21.8766409  76.0171472  54.0683901  21.3636364
  77.4580992  54.5250485  21.2799828  92.8473222  45.2736135  16.7421444
  92.2671891  45.9320939  16.3599496  92.5809154  44.4513480  16.3308861
  91.2976788  44.6741193  18.9442764  91.7976566  44.7857728  18.1357083
  91.9412396  44.3702246  19.5843572  85.3558784  52.5819823  31.8310605
  84.8725866  53.3820183  32.0374494  85.4419723  52.5927768  30.8778049
  78.6244743  54.4148202  19.7532424  78.6015432  54.5135890  18.8014307
  78.9345380  55.2613353  20.0749590  81.2832121  56.4724357  23.8679039
  82.2375375  56.4408300  23.8008970  81.0844645  56.0114981  24.6829265
  81.8731503  55.0425473  26.4349836  82.6924392  55.5369552  26.4584674
  82.1468311  54.1257442  26.4067404  91.6298100  47.4336226  15.7977792
  90.7423955  47.7185876  15.5797987  92.0452089  47.2729989  14.9505069
  94.9812636  47.4582747  19.5132131  95.7573026  47.9479199  19.7856748
  94.2560770  47.8840801  19.9704001  97.4185194  48.1710366  20.5706072
  98.0129685  47.9306102  19.8599380  97.4911778  47.4517497  21.1979608
  79.6382350  62.0143977  20.8849237  79.5036818  61.2544378  20.3187235
  79.2214412  62.7384877  20.4178026  90.7741313  57.1980900   9.8925812
  91.4777163  57.4030903  10.5083468  90.0503962  57.7657662  10.1574895
  91.6039123  52.9490762  16.0128082  91.5474325  53.4059313  15.1735714
  92.1567466  52.1881446  15.8350925  95.4143929  48.7380494  16.8378202
  95.1580864  48.3377129  17.6686409  94.7896797  49.4524288  16.7128341
  99.7256267  51.4776567  19.3449493  99.1655825  51.5469756  20.1181055
  99.1199771  51.3017551  18.6248989  82.7951476  62.9113294  21.0967679
  82.6783860  63.8558726  20.9946370  81.9743922  62.6086855  21.4853478
  92.6828011  57.6363430  11.9424272  93.5173615  57.2044628  11.7601747
  92.5212353  57.4645443  12.8701166  92.3373903  54.1395543  13.3080611
  92.2822707  53.9739814  12.3669055  91.7119958  54.8471576  13.4642801
  77.1266418  49.3763607  27.1342033  77.7725281  48.8662561  27.6229259
  76.9183569  50.1132289  27.7085459  89.6519810  56.4444455  32.6334174
  90.5210970  56.6185107  32.2720809  89.1726561  57.2638872  32.5109903
  85.6470028  43.6403652  12.8865930  85.6348698  44.5845492  13.0434201
  86.5393450  43.4573797  12.5925391  83.8205990  63.5641556  24.3123608
  84.7233237  63.5965166  24.6290103  83.5943360  62.6342007  24.3269943
  85.5759592  62.3172542  20.9733686  84.6255223  62.3174404  20.8598059
  85.8792078  61.5705277  20.4569721  89.4622148  40.2346429  17.1411866
  88.6954543  39.6804915  17.2868549  89.8732853  40.3068297  18.0026018
  81.4663909  46.5231224  31.2317048  82.3295370  46.1668029  31.4420372
  80.8929319  46.1845119  31.9192452 101.3112286  68.1533081  22.0379449
 101.9490696  68.0339828  21.3342789 101.1933129  69.1013925  22.0967401
  98.1201992  68.1060509  21.9740973  97.7820503  67.9901574  21.0861508
  98.9891760  67.7051674  21.9541980  93.9788808  69.9595985  17.9637864
  93.4153673  69.8685922  17.1954152  93.8641203  69.1395890  18.4440357
  98.6021775  69.2595361  27.9327179  98.5910416  68.8648159  27.0607683
  98.7642414  68.5261433  28.5260950  91.5253240  71.4547177  20.8022085
  92.3174531  71.1138002  20.3868384  91.7649890  71.5642152  21.7224238
  99.5588366  73.6266953  13.2752329  98.9076346  74.2121033  12.8886343
 100.3532729  74.1573148  13.3347367  93.4843994  70.7156090  13.6739464
  94.2574870  70.1685077  13.5352339  93.8369392  71.5800339  13.8853925
  95.3229036  72.0432472  26.8806363  95.0318902  72.9478103  26.7653029
  95.9586020  72.0849000  27.5950432  96.2485243  69.4209321  23.4707723
  96.8448815  69.1965343  22.7564686  96.3060214  68.6794066  24.0733170
  95.8210271  66.8748756  11.3057914  96.0735792  66.3530278  10.5441377
  94.8834830  66.7114902  11.4084597 100.8653554  65.8784535  19.1132657
 101.6516643  65.4603958  18.7623074 101.1292258  66.7830627  19.2814305
 101.0363632  71.3157385  13.8121314 100.4009464  71.3892011  14.5242218
 100.7061038  71.9050984  13.1340393 106.2661981  65.8159768  20.0165635
 106.9987153  65.2458985  20.2503465 105.5101337  65.4281368  20.4572141
  95.5406560  68.7776862  13.5082288  95.4242818  68.1021766  14.1763373
  95.6508820  68.2909236  12.6914442  97.8838101  68.2387009  17.2128978
  97.5196308  67.7117630  17.9241899  98.7405217  67.8485478  17.0395463
 103.7887402  59.5281342  24.4760244 103.4570726  60.3976753  24.2521459
 103.1933015  59.2117626  25.1554274  97.5243588  63.2676909  12.2090326
  97.6917990  64.1357145  12.5760797  97.3340757  63.4304191  11.2851615
 100.2818921  71.7293888  23.8756157  99.9819644  72.6318927  23.7671964
  99.9369981  71.4626071  24.7277309  93.7331403  68.1807685  19.9092861
  92.8081899  68.0483899  20.1170553  93.9815816  68.9601904  20.4062803
 103.6816065  64.2476428  21.5553594 102.7732942  64.1791837  21.2612355
 103.6303661  64.7248373  22.3835419  97.5032809  65.7234566  13.1936993
  97.3832434  66.1691617  14.0322473  96.8085397  66.0719884  12.6350531
  91.0940214  67.8240958  20.7436650  91.2232595  68.0775437  21.6576062
  90.4137665  68.4168666  20.4241305  95.2639701  78.4938208  16.8427124
  95.1863731  79.4446033  16.9215605  94.6601345  78.1484081  17.5002051
  97.7556931  65.6666074  29.4988491  96.9790265  66.2259994  29.4891356
  98.3947494  66.1522857  30.0203361 105.5477711  62.4492866  23.3331468
 104.9052092  62.7425400  22.6871262 105.0432640  62.3345787  24.1384665
 103.2017875  66.1956040  14.0217327 104.1135731  66.4283426  13.8465025
 102.6927522  66.7793084  13.4592406  96.0103303  68.4751527  29.0606458
  96.7517987  69.0136571  28.7841282  95.3040289  69.1017816  29.2178010
 101.4858643  70.6180668  27.6578620 101.8941999  70.1763078  26.9133252
 100.7635904  70.0433295  27.9112813  97.8389713  65.5553274  25.0312177
  98.6850908  65.9792688  25.1746826  97.7788350  64.8986899  25.7250740
 101.8087457  71.1781858  21.4130909 101.1796320  71.3427572  20.7106976
 101.4213119  71.5923468  22.1841873 105.6876689  72.1136296  18.7675272
 105.0027727  72.4935197  18.2172306 105.7720539  72.7231623  19.5007220
 100.9889158  63.2157643  26.6893350 100.7450090  63.9699703  26.1527626
 101.2649089  63.5942990  27.5240597 102.9427621  69.7596255  25.3670616
 103.1544516  70.4028015  24.6904997 102.8957369  68.9258572  24.8992546
 100.5453850  62.3714076  22.2707188  99.6838329  62.6695329  22.5623926
 100.5716284  62.5884475  21.3388221  97.3615419  70.9156266  18.6780994
  97.8253765  71.1943969  17.8885616  97.0972217  70.0139711  18.4954084
  94.2539500  70.4627748  21.6160757  94.8240857  70.8915016  20.9778241
  94.8447612  70.1810332  22.3144943  96.2984305  67.0379419  15.4870559
  97.0008349  67.4900462  15.9544485  95.9664934  66.3963237  16.1150452
  94.7464667  65.6291175  29.8621768  94.1163327  66.3107456  30.0957165
  94.6400755  65.5174257  28.9174906  90.0409639  65.2962971  20.7887692
  89.2508693  65.5520500  20.3127803  90.5320887  66.1111309  20.8939733
 104.0573449  72.6368210  23.5392973 104.8790893  72.2348398  23.2575655
 104.0535852  72.5336445  24.4909089  91.9924385  65.6607550  17.7471169
  91.1955548  65.7726245  18.2654665  91.7649977  65.9994203  16.8812060
  97.8230052  72.1852254  25.6953684  97.8874485  72.6472661  26.5311856
  97.1140976  71.5549619  25.8235994  88.3247342  65.5493462  23.2202683
  88.5755381  66.4340472  23.4860259  88.8606891  65.3698063  22.4477775
 112.1479442  68.9806959  19.8877945 111.3943150  68.4114357  19.7321949
 112.2826983  68.9469623  20.8348579  97.5378070  73.8520361  15.5632664
  97.4023745  74.6971897  15.9917512  98.0787882  74.0539639  14.7998598
  94.0245410  59.9311941  32.2247019  93.6312355  59.3778140  32.8994663
  94.8411550  60.2422520  32.6153537  90.9907467  71.3695799  16.1360589
  91.5031988  72.1639049  16.2866154  91.6430180  70.6722090  16.0694191
  92.8002352  74.4861556  18.2183342  92.9768980  75.4079520  18.0304326
  93.5959185  74.1719975  18.6477722  96.9413371  61.3469820  29.8167276
  97.6823084  61.9476973  29.7371738  97.1731293  60.6047458  29.2585318
  92.0854709  66.5326187  28.0945506  91.9708224  65.6311445  28.3952604
  91.2299226  66.7789884  27.7430322  99.1646546  74.4743928  29.6933006
  98.7210400  73.6880306  29.3753911  99.8263760  74.6623078  29.0276897
  93.9233667  76.0039729  24.2193685  94.4741093  75.8756793  23.4470679
  93.0845143  76.3034618  23.8688577 101.2627784  74.7546728  27.7214407
 101.2446260  75.5755609  27.2294677 102.1847704  74.6300803  27.9464549
  97.7200838  72.2690857  28.5637916  98.2529175  71.5079145  28.3337224
  97.1914920  71.9764509  29.3062070 100.8870533  57.3750923  24.0931557
 100.5434803  58.2652565  24.0170668 101.2549496  57.1852581  23.2301143
  88.9556384  69.6984454  16.9120160  89.7931606  70.1081462  16.6953867
  89.1334652  68.7583896  16.8820354 100.8520816  67.3659534  12.6003993
 100.3367440  68.1364139  12.8392380 100.5798125  66.6924670  13.2237054
  98.4367927  62.2109235  17.6589231  97.5809524  61.8216085  17.4794870
  98.8494879  62.2901196  16.7989017  99.9667074  59.7455578  22.0580791
  99.4631869  59.7085713  21.2448596 100.2597681  60.6548321  22.1177447
  96.2109960  59.8294308  21.0646972  97.0762956  59.6337117  20.7052862
  96.2787469  59.6004660  21.9916329 105.8255090  70.1191889  14.5357166
 105.0484533  69.7803048  14.0912328 106.5046571  70.1244512  13.8612131
 100.6407119  65.2386626  14.4263774 100.3357255  65.5532775  15.2773917
 101.5937561  65.3168046  14.4691107  99.0853551  71.3976850  16.0756728
  98.5574913  70.6629609  15.7629965  98.5841054  72.1751526  15.8296696
 104.0646397  69.5925870  21.1923774 103.4070072  70.2825131  21.2803903
 104.8686796  69.9822302  21.5357760  93.8172279  62.0596516  18.4363339
  94.3916031  61.8371697  17.7036532  94.4043261  62.1285210  19.1891941
 102.8751856  67.9470243  19.2427716 103.3883738  68.5800235  19.7449426
 103.5253080  67.3471438  18.8771076  94.1441866  64.0900977  12.4559225
  93.3079178  64.4275663  12.7768499  94.0046636  63.9549957  11.5186362
  96.1194947  58.9337765  17.1638409  95.4659359  58.6186782  16.5395023
  96.0775421  58.3113505  17.8898232  97.2306151  69.2157060   9.0791701
  96.3233213  68.9846313   9.2782850  97.7277183  68.4194679   9.2665682
  99.3532687  65.4219698  21.4886056  98.4355248  65.6434645  21.3307744
  99.7692830  65.4966009  20.6297764 100.1367735  66.8211114  16.6188737
 100.8839554  67.3332511  16.3095859 100.4059324  66.4995167  17.4793130
  98.4094385  69.3169655  13.6015691  97.5005604  69.0328688  13.6988161
  98.4389469  69.7368733  12.7418998 103.6413652  72.9276244  17.3706858
 103.1875979  72.0867154  17.4272049 103.0107619  73.5637643  17.7081639
 102.5846572  63.8568230  18.6007526 101.8469329  63.3445616  18.9317768
 102.8373345  63.4168612  17.7890803 102.0846591  74.7652741  18.3056677
 102.3769566  75.3257798  17.5869042 102.5945212  75.0581302  19.0609836
 102.6858199  56.6344482  19.1949295 102.9917076  55.7741846  18.9075210
 103.4110804  57.2262102  18.9948289  88.9782555  67.0375169  17.5830893
  88.7806955  66.4444530  16.8581960  88.4229219  66.7327379  18.3006832
  96.9579279  66.9298275  19.7025486  97.0127889  65.9772112  19.6267963
  96.1470481  67.0857714  20.1866785  98.1070473  70.8578398  10.9403769
  97.6689903  70.1414257  10.4809407  98.8480913  71.0854513  10.3788861
  94.8971639  65.5475335  17.4615865  94.0839504  65.8469506  17.8681057
  95.3930633  65.1531024  18.1790347  97.0480217  75.5433092  19.3950130
  97.0056395  75.7693938  18.4658662  97.9642916  75.3096467  19.5435931
 100.4945850  66.0117160  26.2930759 100.8495238  66.2388633  27.1525225
 101.1417982  66.3435536  25.6708014 106.2243587  69.1335595  16.9980088
 106.0861486  69.3237191  16.0701277 105.8679806  69.8954978  17.4548139
  94.3885714  63.1193691  23.0777100  95.0285093  62.9782450  22.3800063
  93.5563244  62.8328204  22.7015702 106.2512967  71.2012122  22.0091360
 106.6849474  71.1087412  22.8574414 106.9644548  71.1769623  21.3711376
  95.1646017  72.4196121  19.1912093  95.9586616  71.9246441  18.9894667
  94.4537710  71.8913984  18.8279798  99.9840862  74.8014217  23.5424460
 100.0377884  75.3705153  24.3102176  99.1155643  74.9716102  23.1778497
  91.4728781  66.5639203  15.2671845  90.5426369  66.5023658  15.4841807
  91.5686253  66.0415156  14.4708486  91.3914330  63.0894016  17.8550087
  91.6521147  64.0039349  17.7459247  92.2131502  62.6218458  18.0046700
  92.8639255  64.5031773  25.0248911  93.5362309  64.2949135  24.3761560
  92.0369042  64.3053859  24.5854144 107.1128517  71.2435823  24.5424245
 107.3064407  72.1481634  24.7883520 107.0129135  70.7843242  25.3762830
  98.7664827  61.1293714  27.0414572  98.1192742  61.8283663  26.9479049
  99.5365843  61.5629858  27.4090820 102.1743625  71.3942566  30.1165126
 102.0229132  71.1653118  29.1995209 102.1648305  72.3513167  30.1296471
  98.9428962  68.9674479  25.1011392  99.8721022  69.1185638  24.9280359
  98.5219992  69.0558499  24.2460039  97.7417293  72.9925143  22.8709930
  97.6028379  72.6243927  23.7435868  96.9531890  73.5072782  22.6993887
  98.3365445  78.0934239  14.2135466  98.5117201  77.6222283  15.0281089
  97.6498233  78.7200006  14.4416727  99.2922509  72.3706746  20.2598767
  98.9572341  72.3307516  21.1556417  98.7926454  71.7051462  19.7869178
  93.2666753  67.7774376  25.7851349  93.1286550  67.0454615  26.3862888
  94.1771676  67.6883276  25.5035536 102.2281700  69.7162780  10.5335827
 101.6110871  68.9909608  10.4368880 101.7598189  70.4772140  10.1902901
  95.8949053  67.4894335  25.2735028  96.6048672  66.8487527  25.2321647
  95.8518361  67.7407230  26.1961209 103.8835832  74.4261688  28.1941607
 103.8248378  73.7420909  27.5272190 104.2855350  75.1680678  27.7422233
  94.6077987  64.4759553  27.0930668  94.0715344  64.0250291  27.7452264
  94.0194696  64.6105462  26.3501132  92.9026531  81.2423602  20.9875326
  93.1423129  81.8742126  21.6654345  92.0595727  80.8911642  21.2740686
  94.0180246  63.9348204   9.6557131  93.1409712  63.8137005   9.2919378
  94.4937999  63.1434283   9.4036020 103.8853239  72.3901272  26.4255587
 102.9980018  72.0527194  26.5481986 104.4551790  71.6584304  26.6624352
  85.5382386  68.7225364  19.7498638  86.2253426  68.4087094  19.1619654
  85.3830515  69.6266729  19.4765890  90.3417108  63.6115561  24.1783662
  90.2575297  63.0041230  23.4434072  89.5199815  64.1024579  24.1793159
  97.4154393  77.0502725  23.3916830  97.3424564  77.8557696  23.9036135
  96.9731786  77.2494691  22.5664852  97.2044172  76.2874495  16.9019652
  96.4211694  76.8296175  16.9957876  97.9036917  76.8048474  17.3013893
 100.5140822  62.0969124  19.5453857 101.0109522  61.3439087  19.2254927
  99.7427804  62.1333441  18.9797067 108.3670580  67.8009490  21.1872149
 108.3560456  68.6834205  20.8166082 107.4987959  67.4481041  20.9926686
  99.8753076  76.9489559  25.5474989 100.5881048  77.5837024  25.4750890
  99.3843105  77.0453425  24.7314991 101.5970603  70.8540811  17.1192281
 100.6626882  70.9742274  16.9496985 101.7747271  69.9513278  16.8552290
  97.0975791  64.2386507  19.2725542  96.7273579  63.6857548  19.9606447
  97.5934883  63.6344641  18.7200542 104.9843154  66.6958131  17.6542315
 105.4503607  67.5286122  17.5802617 105.4350655  66.2303112  18.3587573
  94.9264990  74.6984002  26.3680560  95.6274449  75.3320485  26.5209954
  94.4560105  75.0398734  25.6076199 103.0519385  73.0401952  14.6528467
 103.3279229  72.9258547  15.5622341 102.1823884  72.6419437  14.6140640
 102.9559817  59.0638718  21.6933216 102.0422897  59.2942945  21.8615423
 103.3852919  59.1477162  22.5447248 102.7266276  67.2528610  24.1933110
 102.0737726  67.5004517  23.5385563 103.1046655  66.4392748  23.8595587
  99.6873449  77.2888303  18.2961280  99.8695844  76.4709959  18.7589033
 100.5106435  77.5055995  17.8586170 100.0215615  76.2156488  15.5576329
 100.5503381  75.7048943  14.9446491 100.2843835  75.8999018  16.4221862
  98.7753849  67.9948421  30.6799147  98.0994486  67.8942550  31.3501522
  99.5981482  67.8387634  31.1435144  90.5232708  74.2320357  23.3011662
  91.1086144  73.4864045  23.4339567  90.3257546  74.5424314  24.1848326
  93.3771363  77.2671605  18.3174105  92.7081738  77.7517732  17.8338145
  93.2384233  77.5140825  19.2317483  85.1150362  66.8025957  22.0216106
  85.1534462  66.2689548  22.8153224  84.6090655  66.2761163  21.4027083
  97.5176631  79.3015348  24.9156763  98.0694939  79.4646970  25.6805848
  97.8582825  79.8919786  24.2436788  92.4941125  61.6490498  25.5178648
  92.5582451  62.5105329  25.1056046  92.4308245  61.0364500  24.7851006
  91.9693397  63.7213630  29.1651682  92.5965436  63.3390708  29.7789206
  91.1121316  63.5027832  29.5307375 102.3687506  74.1276606  30.7705418
 102.9127410  74.7406564  30.2760372 101.7874351  74.6856184  31.2872431
  88.7458940  65.5290060  15.0970037  89.0412381  64.6200738  15.0437091
  87.8446976  65.5077799  14.7751039 100.6545019  77.2497324  21.9020445
 100.5296158  76.4487064  21.3931391 101.3124110  77.7443517  21.4134415
  92.2753187  63.6046056  21.0797586  91.5539773  64.2182024  20.9405059
  93.0646443  64.1403821  21.0014232 102.7179927  75.0506344  23.5299995
 101.7710263  74.9311695  23.4578322 103.0662700  74.1628842  23.6126257
  95.0779500  60.9400483  27.3538237  95.6013902  61.1862779  28.1164547
  94.8591834  61.7720517  26.9341375  90.4746782  63.2104157  15.2209362
  90.1459488  62.3301536  15.0384468  90.8286152  63.1551826  16.1085751
  99.7226360  74.8459060  19.7304348  99.5751323  73.9175767  19.9111918
 100.5479854  74.8679151  19.2461423  93.5888605  63.4977127  15.5884840
  93.9284677  64.0263048  14.8663448  94.0360725  63.8357533  16.3643406
 103.3260482  75.6687619  20.8169220 104.2507030  75.4630480  20.6793672
 103.1575786  75.4204020  21.7258562  96.2832046  61.8814178  25.0387908
  95.9428866  61.0821991  25.4408588  95.5771052  62.1815889  24.4664741
  96.9348517  58.9663490  23.4915231  97.7574587  58.4923968  23.3694121
  97.1786581  59.7453974  23.9913917  95.5756752  61.9951749  13.7878133
  96.2965114  62.3733001  13.2841849  94.9522056  62.7140625  13.8913111
  99.7187875  62.6996898  14.7236465  99.9351489  63.5821535  14.4225293
  99.2381942  62.3083111  13.9942107  94.4587096  65.6582611  21.3007210
  94.3131677  65.9722914  22.1931491  93.9812300  66.2767511  20.7478108
  96.3183479  62.6485159  21.3488099  96.3045048  61.7526252  21.0120397
  97.0355907  62.6555823  21.9826385  98.1709610  63.0822499  23.3941226
  97.9127388  64.0039570  23.3925557  97.6394650  62.6852934  24.0841691
 103.1155798  76.1873286  16.1731312 103.2892676  75.6219709  15.4205164
 103.6084690  76.9874181  15.9910802  88.9332758  68.1987955  24.2394871
  88.3886226  68.9747763  24.3715145  89.8112108  68.5458760  24.0813992
  95.7220375  61.5299539  16.6175669  95.8436286  60.6016185  16.8166557
  95.4322417  61.5438225  15.7053985  98.5911565  59.2154450  19.7542389
  98.6133262  59.2793783  18.7994369  99.0079624  58.3758958  19.9482895
 108.9695190  68.9509709  17.7921612 109.4126336  68.2017034  17.3940735
 108.0921700  68.9419845  17.4095344  89.7198780  67.3257852  27.1325028
  88.9780516  67.4740487  27.7189658  89.3991524  67.5866117  26.2691777
 106.0022394  72.9539756  14.8015541 106.5273718  73.2927029  14.0764861
 105.9144747  72.0186771  14.6178676  97.6642443  76.8673830  26.9305418
  97.9729569  76.6222976  27.8028117  98.4617925  77.0720468  26.4424288
  97.6863055  79.0211739  19.1610794  97.2468045  78.5288118  19.8543651
  98.4371172  78.4784707  18.9202869  90.1655394  75.2123280  19.1635422
  90.9913414  74.9127052  18.7834066  89.8149446  74.4430903  19.6125211
  95.1336927  74.5649748  21.2333096  94.5116936  73.9020453  20.9335324
  95.8041794  74.5910880  20.5506744  88.3663999  73.1309607  20.1224356
  87.5295907  72.7031781  19.9408357  88.3387644  73.3242050  21.0595147
  95.2061454  63.0431536  30.8265602  95.2549610  63.9193659  30.4443371
  95.7483969  62.5008930  30.2537245 105.6916300  73.5872660  30.1066739
 104.9011844  73.5696799  29.5671238 105.4549655  74.1260953  30.8615775
 105.8114175  70.4365126  27.4199467 105.8612180  70.2715134  28.3614990
 105.7028099  69.5692385  27.0297348  94.6950434  73.1153672  14.7091556
  94.8438554  73.7989136  14.0558229  95.5016877  73.0958762  15.2241012
 103.1017938  66.4196054  28.7358774 104.0027800  66.2802519  28.4442772
 103.1765912  66.5850509  29.6756952  97.4360743  63.7962909  27.5811960
  96.5664052  64.0896475  27.3094549  97.6720223  64.3803354  28.3019224
 107.3132372  72.8562068  27.6641489 107.0217180  73.2192048  28.5004950
 106.7004503  72.1429076  27.4854821 108.5128054  70.4214947  20.1844059
 109.3474946  70.8604751  20.3481620 108.6487183  69.9453601  19.3652305
 105.5619560  67.9794682  26.1321547 106.0373682  68.1722329  25.3240398
 104.6385126  68.0353868  25.8864931  92.4503067  69.1418849  15.7152625
  92.2049109  68.2381179  15.9132835  92.6198981  69.1436000  14.7732103
 100.1399777  60.0142526  25.0977381 100.6581721  60.7503553  24.7723869
  99.7854910  60.3206519  25.9324140  91.7198714  64.8747207  13.2138787
  91.0267959  64.9491562  12.5578823  91.4750466  64.1107551  13.7360304
 100.3912371  56.4342808  20.6178277 100.6714125  55.7665997  21.2438704
 101.1762978  56.6271904  20.1052941  98.1945839  75.6101802  12.1803304
  97.6219807  76.2291989  11.7273776  98.7678633  76.1601164  12.7143226
 104.2621229  64.8560442  24.3649853 105.2138652  64.9558540  24.3862077
 104.0924680  64.0638711  24.8747937 102.2835609  61.9416026  24.5509253
 101.6885541  62.2221038  23.8555742 101.9985305  62.4309926  25.3225995
 106.7409307  68.0766562  23.4792152 106.7085627  67.1382563  23.6651836
 107.3509931  68.1550599  22.7457977  98.5792638  66.9462615   9.5219356
  99.5251743  66.8168823   9.5907774  98.2006883  66.2077277   9.9988784
 106.8903796  64.8677605  23.5250435 106.3742844  64.0836062  23.3380364
 107.7743744  64.5396322  23.6896955 104.5514522  58.6118621  19.4846248
 104.3539344  58.3033709  20.3689580 105.1614228  59.3380260  19.6144178
 112.5585857  69.1382569  22.6198189 113.2889245  68.8767857  23.1805892
 111.9492802  68.4011291  22.6600257 110.6401154  67.2790431  23.2172640
 109.9134318  67.1446396  22.6089132 110.2248441  67.5867260  24.0229358
  98.4631330  70.9980361  30.9820013  99.3834340  71.1758960  31.1760060
  98.4280913  70.0536406  30.8299712  96.7635555  64.8712591   9.4574241
  95.8567010  64.5745704   9.5336955  97.0411536  64.5742409   8.5908528
  87.6813495  66.1918955  19.9073288  87.3616280  65.3384263  19.6147662
  87.1346924  66.4067533  20.6631255  91.4593403  68.9081396  23.6242794
  91.6779413  69.8398504  23.6430828  91.8719177  68.5489370  24.4097598
  98.3797621  59.4149481  15.6118483  97.5698349  59.0696566  15.9873729
  99.0682038  59.1057025  16.2006094 100.3088169  58.4927528  17.2342779
 100.8619208  58.9122981  17.8932803 100.5458255  57.5663276  17.2765735
  96.3321268  64.4814602  33.0145543  96.2317995  65.4308959  32.9457634
  96.1142810  64.1532840  32.1421613  95.5334340  61.7299527   9.5986221
  96.3953504  62.0554425   9.8582038  95.7184684  60.9431023   9.0859286
  87.5501755  69.8121866  21.8766409  86.8565227  69.3975819  21.3636364
  88.2974746  69.8542403  21.2799828 103.6866976  60.6028053  16.7421444
 103.1065645  61.2612857  16.3599496 103.4202909  59.7805398  16.3308861
 102.1370543  60.0033111  18.9442764 102.6370321  60.1149645  18.1357083
 102.7806150  59.6994164  19.5843572  96.1952538  67.9111740  31.8310605
  95.7119620  68.7112100  32.0374494  96.2813477  67.9219685  30.8778049
  89.4638498  69.7440120  19.7532424  89.4409186  69.8427807  18.8014307
  89.7739134  70.5905271  20.0749590  92.1225876  71.8016275  23.8679039
  93.0769129  71.7700217  23.8008970  91.9238399  71.3406899  24.6829265
  92.7125258  70.3717391  26.4349836  93.5318147  70.8661470  26.4584674
  92.9862066  69.4549359  26.4067404 102.4691854  62.7628143  15.7977792
 101.5817709  63.0477794  15.5797987 102.8845843  62.6021907  14.9505069
 105.8206390  62.7874664  19.5132131 106.5966780  63.2771117  19.7856748
 105.0954524  63.2132719  19.9704001 108.2578949  63.5002284  20.5706072
 108.8523440  63.2598020  19.8599380 108.3305533  62.7809414  21.1979608
  90.4776105  77.3435895  20.8849237  90.3430573  76.5836295  20.3187235
  90.0608167  78.0676794  20.4178026 102.4432878  68.2782679  16.0128082
 102.3868079  68.7351231  15.1735714 102.9961220  67.5173364  15.8350925
 106.2537684  64.0672411  16.8378202 105.9974618  63.6669047  17.6686409
 105.6290552  64.7816205  16.7128341 110.5650022  66.8068484  19.3449493
 110.0049580  66.8761674  20.1181055 109.9593525  66.6309469  18.6248989
  93.6345231  78.2405212  21.0967679  93.5177615  79.1850644  20.9946370
  92.8137677  77.9378773  21.4853478 103.5221765  72.9655347  11.9424272
 104.3567369  72.5336546  11.7601747 103.3606108  72.7937361  12.8701166
 103.1767657  69.4687461  13.3080611 103.1216461  69.3031732  12.3669055
 102.5513713  70.1763494  13.4642801  87.9660172  64.7055525  27.1342033
  88.6119036  64.1954479  27.6229259  87.7577323  65.4424207  27.7085459
 100.4913564  71.7736372  32.6334174 101.3604724  71.9477025  32.2720809
 100.0120316  72.5930789  32.5109903  96.4863783  58.9695570  12.8865930
  96.4742453  59.9137410  13.0434201  97.3787205  58.7865715  12.5925391
  94.6599745  78.8933473  24.3123608  95.5626991  78.9257084  24.6290103
  94.4337115  77.9633924  24.3269943  96.4153347  77.6464460  20.9733686
  95.4648978  77.6466322  20.8598059  96.7185833  76.8997195  20.4569721
 100.3015902  55.5638346  17.1411866  99.5348298  55.0096833  17.2868549
 100.7126607  55.6360215  18.0026018  92.3057663  61.8523142  31.2317048
  93.1689125  61.4959947  31.4420372  91.7323074  61.5137037  31.9192452
 108.9595746  83.4352427  21.9740973 108.6214258  83.3193491  21.0861508
 109.8285515  83.0343592  21.9541980 109.4415529  84.5887278  27.9327179
 109.4304170  84.1940077  27.0607683 109.6036169  83.8553351  28.5260950
 102.3646994  86.7839095  20.8022085 103.1568286  86.4429919  20.3868384
 102.6043644  86.8934070  21.7224238 106.1622791  87.3724390  26.8806363
 105.8712657  88.2770021  26.7653029 106.7979775  87.4140918  27.5950432
 107.0878997  84.7501239  23.4707723 107.6842570  84.5257261  22.7564686
 107.1453969  84.0085984  24.0733170 114.6281156  74.8573260  24.4760244
 114.2964481  75.7268671  24.2521459 114.0326770  74.5409544  25.1554274
 111.1212676  87.0585806  23.8756157 110.8213399  87.9610844  23.7671964
 110.7763735  86.7917989  24.7277309 104.5725157  83.5099602  19.9092861
 103.6475654  83.3775817  20.1170553 104.8209570  84.2893822  20.4062803
 114.5209819  79.5768346  21.5553594 113.6126697  79.5083754  21.2612355
 114.4697415  80.0540291  22.3835419 101.9333968  83.1532876  20.7436650
 102.0626349  83.4067355  21.6576062 101.2531419  83.7460584  20.4241305
 108.5950685  80.9957991  29.4988491 107.8184019  81.5551911  29.4891356
 109.2341248  81.4814774  30.0203361 116.3871466  77.7784784  23.3331468
 115.7445846  78.0717317  22.6871262 115.8826394  77.6637704  24.1384665
 106.8497058  83.8043445  29.0606458 107.5911742  84.3428489  28.7841282
 106.1434043  84.4309733  29.2178010 112.3252397  85.9472585  27.6578620
 112.7335753  85.5054996  26.9133252 111.6029659  85.3725213  27.9112813
 108.6783467  80.8845192  25.0312177 109.5244662  81.3084606  25.1746826
 108.6182105  80.2278816  25.7250740 111.8282913  78.5449560  26.6893350
 111.5843844  79.2991621  26.1527626 112.1042843  78.9234908  27.5240597
 113.7821375  85.0888173  25.3670616 113.9938271  85.7319933  24.6904997
 113.7351124  84.2550489  24.8992546 111.3847604  77.7005993  22.2707188
 110.5232083  77.9987247  22.5623926 111.4110039  77.9176392  21.3388221
 105.0933255  85.7919665  21.6160757 105.6634612  86.2206934  20.9778241
 105.6841367  85.5102250  22.3144943 105.5858421  80.9583093  29.8621768
 104.9557082  81.6399374  30.0957165 105.4794509  80.8466174  28.9174906
 100.8803394  80.6254889  20.7887692 100.0902448  80.8812417  20.3127803
 101.3714641  81.4403227  20.8939733 102.8318139  80.9899468  17.7471169
 102.0349302  81.1018162  18.2654665 102.6043731  81.3286120  16.8812060
 108.6623807  87.5144171  25.6953684 108.7268239  87.9764579  26.5311856
 107.9534731  86.8841536  25.8235994  99.1641097  80.8785379  23.2202683
  99.4149135  81.7632389  23.4860259  99.7000645  80.6989981  22.4477775
 104.8639164  75.2603859  32.2247019 104.4706110  74.7070057  32.8994663
 105.6805304  75.5714437  32.6153537 107.7807125  76.6761738  29.8167276
 108.5216838  77.2768891  29.7371738 108.0125048  75.9339376  29.2585318
 102.9248463  81.8618105  28.0945506 102.8101978  80.9603362  28.3952604
 102.0692981  82.1081802  27.7430322 110.0040301  89.8035845  29.6933006
 109.5604155  89.0172224  29.3753911 110.6657514  89.9914996  29.0276897
 104.7627422  91.3331647  24.2193685 105.3134847  91.2048710  23.4470679
 103.9238898  91.6326536  23.8688577 112.1021539  90.0838645  27.7214407
 112.0840014  90.9047526  27.2294677 113.0241459  89.9592721  27.9464549
 108.5594593  87.5982775  28.5637916 109.0922930  86.8371063  28.3337224
 108.0308674  87.3056427  29.3062070 111.7264288  72.7042841  24.0931557
 111.3828557  73.5944482  24.0170668 112.0943251  72.5144498  23.2301143
 110.8060828  75.0747496  22.0580791 110.3025624  75.0377631  21.2448596
 111.0991435  75.9840239  22.1177447 107.0503714  75.1586226  21.0646972
 107.9156711  74.9629034  20.7052862 107.1181223  74.9296577  21.9916329
 104.6566033  77.3888434  18.4363339 105.2309785  77.1663615  17.7036532
 105.2437016  77.4577128  19.1891941 106.9588701  74.2629682  17.1638409
 106.3053113  73.9478700  16.5395023 106.9169175  73.6405423  17.8898232
 110.1926441  80.7511616  21.4886056 109.2749003  80.9726563  21.3307744
 110.6086585  80.8257926  20.6297764 113.5251954  71.9636400  19.1949295
 113.8310830  71.1033763  18.9075210 114.2504558  72.5554020  18.9948289
  99.8176310  82.3667087  17.5830893  99.6200709  81.7736447  16.8581960
  99.2622974  82.0619297  18.3006832 107.7973033  82.2590193  19.7025486
 107.8521643  81.3064029  19.6267963 106.9864235  82.4149632  20.1866785
 105.7365393  80.8767253  17.4615865 104.9233259  81.1761423  17.8681057
 106.2324387  80.4822942  18.1790347 111.3339605  81.3409077  26.2930759
 111.6888993  81.5680550  27.1525225 111.9811736  81.6727454  25.6708014
 105.2279468  78.4485608  23.0777100 105.8678847  78.3074367  22.3800063
 104.3956999  78.1620122  22.7015702 102.2308084  78.4185933  17.8550087
 102.4914902  79.3331267  17.7459247 103.0525257  77.9510376  18.0046700
 103.7033010  79.8323690  25.0248911 104.3756063  79.6241053  24.3761560
 102.8762796  79.6345776  24.5854144 109.6058582  76.4585631  27.0414572
 108.9586497  77.1575581  26.9479049 110.3759597  76.8921775  27.4090820
 113.0137380  86.7234484  30.1165126 112.8622886  86.4945035  29.1995209
 113.0042059  87.6805085  30.1296471 109.7822716  84.2966396  25.1011392
 110.7114776  84.4477556  24.9280359 109.3613746  84.3850417  24.2460039
 108.5811048  88.3217061  22.8709930 108.4422134  87.9535845  23.7435868
 107.7925644  88.8364700  22.6993887 104.1060507  83.1066293  25.7851349
 103.9680305  82.3746532  26.3862888 105.0165430  83.0175194  25.5035536
 106.7342808  82.8186253  25.2735028 107.4442426  82.1779445  25.2321647
 106.6912116  83.0699148  26.1961209 114.7229586  89.7553606  28.1941607
 114.6642133  89.0712826  27.5272190 115.1249105  90.4972596  27.7422233
 105.4471742  79.8051471  27.0930668 104.9109099  79.3542209  27.7452264
 104.8588450  79.9397379  26.3501132 114.7246994  87.7193190  26.4255587
 113.8373772  87.3819112  26.5481986 115.2945545  86.9876221  26.6624352
  96.3776141  84.0517282  19.7498638  97.0647181  83.7379012  19.1619654
  96.2224269  84.9558646  19.4765890 101.1810863  78.9407478  24.1783662
 101.0969052  78.3333148  23.4434072 100.3593569  79.4316497  24.1793159
 111.3534577  77.4261042  19.5453857 111.8503276  76.6731004  19.2254927
 110.5821558  77.4625359  18.9797067 107.9369546  79.5678425  19.2725542
 107.5667333  79.0149465  19.9606447 108.4328638  78.9636558  18.7200542
 105.7658744  90.0275920  26.3680560 106.4668204  90.6612403  26.5209954
 105.2953859  90.3690651  25.6076199 113.7953572  74.3930635  21.6933216
 112.8816651  74.6234862  21.8615423 114.2246673  74.4769079  22.5447248
 113.5660030  82.5820527  24.1933110 112.9131480  82.8296435  23.5385563
 113.9440410  81.7684666  23.8595587 109.6147603  83.3240338  30.6799147
 108.9388240  83.2234468  31.3501522 110.4375237  83.1679552  31.1435144
 101.3626462  89.5612275  23.3011662 101.9479899  88.8155963  23.4339567
 101.1651301  89.8716232  24.1848326  95.9544117  82.1317875  22.0216106
  95.9928216  81.5981466  22.8153224  95.4484410  81.6053081  21.4027083
 103.3334879  76.9782416  25.5178648 103.3976206  77.8397247  25.1056046
 103.2701999  76.3656417  24.7851006 102.8087152  79.0505548  29.1651682
 103.4359191  78.6682625  29.7789206 101.9515071  78.8319750  29.5307375
 113.2081260  89.4568523  30.7705418 113.7521164  90.0698482  30.2760372
 112.6268105  90.0148102  31.2872431  99.5852694  80.8581977  15.0970037
  99.8806136  79.9492656  15.0437091  98.6840730  80.8369717  14.7751039
 103.1146941  78.9337974  21.0797586 102.3933527  79.5473942  20.9405059
 103.9040197  79.4695739  21.0014232 105.9173255  76.2692400  27.3538237
 106.4407657  76.5154697  28.1164547 105.6985588  77.1012435  26.9341375
 101.3140536  78.5396075  15.2209362 100.9853242  77.6593454  15.0384468
 101.6679907  78.4843744  16.1085751 107.1225800  77.2106095  25.0387908
 106.7822620  76.4113909  25.4408588 106.4164806  77.5107806  24.4664741
 107.7742272  74.2955408  23.4915231 108.5968341  73.8215886  23.3694121
 108.0180335  75.0745892  23.9913917 105.2980851  80.9874529  21.3007210
 105.1525431  81.3014832  22.1931491 104.8206054  81.6059429  20.7478108
 107.1577233  77.9777077  21.3488099 107.1438802  77.0818170  21.0120397
 107.8749662  77.9847740  21.9826385 109.0103364  78.4114417  23.3941226
 108.7521142  79.3331487  23.3925557 108.4788405  78.0144851  24.0841691
  99.7726513  83.5279873  24.2394871  99.2279981  84.3039681  24.3715145
 100.6505863  83.8750677  24.0813992 106.5614129  76.8591457  16.6175669
 106.6830041  75.9308103  16.8166557 106.2716172  76.8730143  15.7053985
 109.4305320  74.5446367  19.7542389 109.4527017  74.6085700  18.7994369
 109.8473379  73.7050876  19.9482895 100.5592535  82.6549769  27.1325028
  99.8174271  82.8032405  27.7189658 100.2385279  82.9158035  26.2691777
 108.5036197  92.1965747  26.9305418 108.8123324  91.9514894  27.8028117
 109.3011679  92.4012386  26.4424288  99.2057753  88.4601524  20.1224356
  98.3689662  88.0323699  19.9408357  99.1781399  88.6533968  21.0595147
 106.0455209  78.3723454  30.8265602 106.0943364  79.2485577  30.4443371
 106.5877723  77.8300847  30.2537245 116.5310055  88.9164577  30.1066739
 115.7405598  88.8988716  29.5671238 116.2943409  89.4552871  30.8615775
 116.6507930  85.7657044  27.4199467 116.7005935  85.6007051  28.3614990
 116.5421853  84.8984303  27.0297348 113.9411692  81.7487972  28.7358774
 114.8421555  81.6094437  28.4442772 114.0159667  81.9142427  29.6756952
 108.2754497  79.1254827  27.5811960 107.4057807  79.4188393  27.3094549
 108.5113978  79.7095272  28.3019224 118.1526127  88.1853985  27.6641489
 117.8610935  88.5483966  28.5004950 117.5398258  87.4720994  27.4854821
 116.4013315  83.3086600  26.1321547 116.8767436  83.5014246  25.3240398
 115.4778880  83.3645786  25.8864931 110.9793531  75.3434443  25.0977381
 111.4975475  76.0795470  24.7723869 110.6248664  75.6498437  25.9324140
 111.2306125  71.7634726  20.6178277 111.5107879  71.0957915  21.2438704
 112.0156732  71.9563822  20.1052941 115.1014984  80.1852360  24.3649853
 116.0532407  80.2850458  24.3862077 114.9318434  79.3930629  24.8747937
 113.1229363  77.2707943  24.5509253 112.5279295  77.5512956  23.8555742
 112.8379060  77.7601844  25.3225995 117.7297550  80.1969523  23.5250435
 117.2136599  79.4127980  23.3380364 118.6137499  79.8688240  23.6896955
 115.3908277  73.9410539  19.4846248 115.1933098  73.6325627  20.3689580
 116.0007983  74.6672178  19.6144178 109.3025085  86.3272279  30.9820013
 110.2228094  86.5050878  31.1760060 109.2674668  85.3828324  30.8299712
  98.5207250  81.5210872  19.9073288  98.2010034  80.6676181  19.6147662
  97.9740678  81.7359451  20.6631255 102.2987157  84.2373313  23.6242794
 102.5173167  85.1690421  23.6430828 102.7112931  83.8781288  24.4097598
 109.2191375  74.7441399  15.6118483 108.4092104  74.3988484  15.9873729
 109.9075792  74.4348943  16.2006094 111.1481924  73.8219446  17.2342779
 111.7012962  74.2414899  17.8932803 111.3852010  72.8955194  17.2765735
 107.1715023  79.8106519  33.0145543 107.0711750  80.7600876  32.9457634
 106.9536565  79.4824758  32.1421613  98.3895510  85.1413784  21.8766409
  97.6958981  84.7267737  21.3636364  99.1368501  85.1834320  21.2799828
 112.9764297  75.3325028  18.9442764 113.4764075  75.4441563  18.1357083
 113.6199905  75.0286081  19.5843572 107.0346293  83.2403658  31.8310605
 106.5513375  84.0404018  32.0374494 107.1207232  83.2511603  30.8778049
 100.3032252  85.0732038  19.7532424 100.2802941  85.1719725  18.8014307
 100.6132889  85.9197189  20.0749590 102.9619630  87.1308193  23.8679039
 103.9162884  87.0992135  23.8008970 102.7632154  86.6698817  24.6829265
 103.5519012  85.7009309  26.4349836 104.3711901  86.1953387  26.4584674
 103.8255820  84.7841277  26.4067404  98.8053927  80.0347443  27.1342033
  99.4512790  79.5246397  27.6229259  98.5971078  80.7716124  27.7085459
 111.3307319  87.1028290  32.6334174 112.1998479  87.2768942  32.2720809
 110.8514070  87.9222707  32.5109903 111.1409657  70.8930264  17.1411866
 110.3742052  70.3388751  17.2868549 111.5520362  70.9652133  18.0026018
 103.1451418  77.1815060  31.2317048 104.0082879  76.8251865  31.4420372
 102.5716828  76.8428955  31.9192452 115.7032918  90.5895776  32.2247019
 115.3099864  90.0361975  32.8994663 116.5199059  90.9006355  32.6153537
 118.6200879  92.0053655  29.8167276 119.3610593  92.6060809  29.7371738
 118.8518802  91.2631293  29.2585318 113.6480906  94.3797466  29.1651682
 114.2752945  93.9974543  29.7789206 112.7908825  94.1611668  29.5307375
 116.8848963  93.7015372  30.8265602 116.9337119  94.5777495  30.4443371
 117.4271478  93.1592765  30.2537245 118.0108777  95.1398437  33.0145543
 117.9105504  96.0892794  32.9457634 117.7930319  94.8116676  32.1421613
 109.6447681  95.3639360  27.1342033 110.2906545  94.8538314  27.6229259
 109.4364832  96.1008042  27.7085459 113.9845172  92.5106977  31.2317048
 114.8476634  92.1543782  31.4420372 113.4110583  92.1720872  31.9192452
  69.8506244   5.1462975  17.4950724  70.3946148   5.7592933  17.0005679
  69.2693088   5.7042554  18.0117737  73.1735038   4.6059029  16.8312046
  72.3830582   4.5883168  16.2916545  72.9368393   5.1447323  17.5861082
  67.9732302   2.7922742  19.3579481  68.8423462   2.9663394  18.9966116
  67.4939054   3.6117159  19.2355210  79.6324778  14.5011368   8.7624755
  80.2703188  14.3818115   8.0588095  79.5145621  15.4492212   8.8212708
  76.4414484  14.4538796   8.6986280  76.1032996  14.3379861   7.8106815
  77.3104252  14.0529961   8.6787286  76.9234267  15.6073648  14.6572486
  76.9122908  15.2126446  13.7852989  77.0854907  14.8739720  15.2506257
  73.6441528  18.3910760  13.6051670  73.3531394  19.2956390  13.4898336
  74.2798513  18.4327287  14.3195739  74.5697735  15.7687608  10.1953029
  75.1661307  15.5443631   9.4809992  74.6272707  15.0272354  10.7978477
  78.6031413  18.0772175  10.6001463  78.3032137  18.9797214  10.4917270
  78.2582473  17.8104358  11.4522616  73.5852193  24.8416495   3.5672431
  73.5076223  25.7924321   3.6460911  72.9813837  24.4962368   4.2247357
  76.0769423  12.0144361  16.2233798  75.3002757  12.5738281  16.2136662
  76.7159986  12.5001144  16.7448668  74.3315795  14.8229814  15.7851765
  75.0730480  15.3614858  15.5086588  73.6252781  15.4496103  15.9423317
  79.8071135  16.9658955  14.3823926  80.2154491  16.5241365  13.6378559
  79.0848396  16.3911582  14.6358119  76.1602205  11.9031562  11.7557483
  77.0063400  12.3270975  11.8992132  76.1000843  11.2465186  12.4496046
  80.1299950  17.5260145   8.1376215  79.5008812  17.6905859   7.4352283
  79.7425612  17.9401755   8.9087179  79.3101650   9.5635930  13.4138657
  79.0662582  10.3177990  12.8772933  79.5861581   9.9421277  14.2485904
  81.2640113  16.1074542  12.0915922  81.4757008  16.7506302  11.4150304
  81.2169861  15.2736859  11.6237853  72.5751993  16.8106035   8.3406064
  73.1453350  17.2393303   7.7023548  73.1660104  16.5288620   9.0390249
  73.0677159  11.9769462  16.5867075  72.4375820  12.6585743  16.8202472
  72.9613247  11.8652544  15.6420213  82.3785941  18.9846498  10.2638280
  83.2003385  18.5826685   9.9820961  82.3748344  18.8814732  11.2154396
  76.1442544  18.5330541  12.4198990  76.2086977  18.9950948  13.2557162
  75.4353468  17.9027906  12.5481300  72.3457902   6.2790228  18.9492326
  71.9524847   5.7256427  19.6239970  73.1624042   6.5900807  19.3398843
  75.2625863   7.6948107  16.5412582  76.0035576   8.2955261  16.4617045
  75.4943786   6.9525745  15.9830625  70.4067201  12.8804475  14.8190812
  70.2920716  11.9789732  15.1197911  69.5511719  13.1268171  14.4675629
  77.4859039  20.8222215  16.4178313  77.0422893  20.0358594  16.0999217
  78.1476252  21.0101365  15.7522204  72.2446160  22.3518017  10.9438991
  72.7953585  22.2235080  10.1715985  71.4057636  22.6512906  10.5933884
  79.5840277  21.1025015  14.4459714  79.5658752  21.9233896  13.9539983
  80.5060197  20.9779090  14.6709855  76.0413331  18.6169144  15.2883222
  76.5741668  17.8557433  15.0582530  75.5127412  18.3242796  16.0307377
  82.3858889  15.9404157   7.9169081  81.7282564  16.6303419   8.0049209
  83.1899289  16.3300589   8.2603067  81.9626144  19.2754531   4.0952165
  81.5088472  18.4345441   4.1517356  81.3320111  19.9115930   4.4326945
  80.4059084  21.1131028   5.0301983  80.6982058  21.6736085   4.3114349
  80.9157704  21.4059589   5.7855142  75.3692709  21.8911379   6.1195436
  75.3268888  22.1172226   5.1903968  76.2855408  21.6574754   6.2681238
  78.8158343  12.3595447  13.0176066  79.1707730  12.5866920  13.8770531
  79.4630474  12.6913824  12.3953321  84.5725459  17.5490410   8.7336666
  85.0061966  17.4565699   9.5819720  85.2857040  17.5247910   8.0956682
  78.3053354  21.1492504  10.2669767  78.3590376  21.7183440  11.0347483
  77.4368136  21.3194389   9.9023804  85.4341009  17.5914110  11.2669552
  85.6276899  18.4959921  11.5128826  85.3341627  17.1321529  12.1008137
  77.0877320   7.4772001  13.7659879  76.4405235   8.1761951  13.6724355
  77.8578335   7.9108145  14.1336127  80.4956118  17.7420853  16.8410432
  80.3441624  17.5131405  15.9240516  80.4860797  18.6991455  16.8541777
  77.2641454  15.3152766  11.8256699  78.1933514  15.4663925  11.6525666
  76.8432484  15.4036787  10.9705345  76.0629786  19.3403430   9.5955236
  75.9240871  18.9722215  10.4681174  75.2744382  19.8551070   9.4239194
  77.6135001  18.7185033   6.9844074  77.2784833  18.6785803   7.8801724
  77.1138947  18.0529749   6.5114484  71.5879245  14.1252663  12.5096655
  71.4499043  13.3932902  13.1108194  72.4984168  14.0361563  12.2280843
  74.2161545  13.8372622  11.9980335  74.9261164  13.1965815  11.9566953
  74.1730854  14.0885517  12.9206516  82.2048324  20.7739976  14.9186914
  82.1460870  20.0899196  14.2517497  82.6067843  21.5158966  14.4667540
  72.9290479  10.8237840  13.8175974  72.3927836  10.3728579  14.4697571
  72.3407188  10.9583749  13.0746439  71.2239023  27.5901889   7.7120633
  71.4635621  28.2220414   8.3899652  70.3808219  27.2389930   7.9985992
  82.2065731  18.7379560  13.1500894  81.3192510  18.4005481  13.2727293
  82.7764282  18.0062591  13.3869659  75.7366885  23.3981012  10.1162137
  75.6637056  24.2035983  10.6281441  75.2944278  23.5972978   9.2910158
  75.5256664  22.6352782   3.6264958  74.7424186  23.1774462   3.7203183
  76.2249410  23.1526762   4.0259200  78.1965568  23.2967846  12.2720296
  78.9093541  23.9315311  12.1996197  77.7055597  23.3931712  11.4560297
  73.2477482  21.0462289  13.0925866  73.9486941  21.6798772  13.2455261
  72.7772597  21.3877021  12.3321506  81.0478768  13.6006897  10.9178417
  80.3950218  13.8482804  10.2630870  81.4259148  12.7871035  10.5840894
  78.0085942  23.6366590   5.0206587  78.1908336  22.8188246   5.4834339
  78.8318928  23.8534282   4.5831477  78.3428107  22.5634775   2.2821636
  78.8715874  22.0527230   1.6691798  78.6056327  22.2477305   3.1467169
  77.0966341  14.3426708  17.4044454  76.4206978  14.2420837  18.0746829
  77.9193975  14.1865922  17.8680451  68.8445200  20.5798644  10.0256969
  69.4298637  19.8342332  10.1584873  68.6470038  20.8902601  10.9093633
  71.6983855  23.6149892   5.0419411  71.0294230  24.0996019   4.5583452
  71.5596725  23.8619112   5.9562790  75.8389124  25.6493635  11.6402070
  76.3907432  25.8125257  12.4051155  76.1795317  26.2398073  10.9682095
  70.2905889  10.0691918  15.8896989  70.9177928   9.6868995  16.5034513
  69.4333808   9.8506120  16.2552681  80.6899998  20.4754893  17.4950724
  81.2339902  21.0884851  17.0005679  80.1086843  21.0334471  18.0117737
  78.9757511  23.5975611   8.6265752  78.8508650  22.7965351   8.1176697
  79.6336602  24.0921804   8.1379722  81.0392419  21.3984631  10.2545302
  80.0922755  21.2789982  10.1823629  81.3875193  20.5107129  10.3371564
  73.3991993   7.2878770  14.0783544  73.9226395   7.5341066  14.8409853
  73.1804326   8.1198805  13.6586681  78.0438853  21.1937347   6.4549654
  77.8963815  20.2654055   6.6357224  78.8692346  21.2157438   5.9706730
  81.6472975  22.0165906   7.5414527  82.5719522  21.8108767   7.4038978
  81.4788278  21.7682307   8.4503869  76.4922102   9.4300786  10.1186533
  76.2339880  10.3517857  10.1170864  75.9607142   9.0331221  10.8086997
  81.4368291  22.5351573   2.8976619  81.6105168  21.9697996   2.1450471
  81.9297182  23.3352468   2.7156108  67.2545251  14.5466242  10.9640177
  66.7098719  15.3226050  11.0960452  68.1324600  14.8937047  10.8059299
  68.0411272  13.6736139  13.8570334  67.2993008  13.8218774  14.4434965
  67.7204017  13.9344404  12.9937084  75.9854935  23.2152117  13.6550724
  76.2942062  22.9701264  14.5273424  76.7830417  23.4198755  13.1669594
  76.0075547  25.3690027   5.8856101  75.5680537  24.8766405   6.5788957
  76.7583664  24.8262994   5.6448176  73.4549419  20.9128036   7.9578402
  72.8329429  20.2498741   7.6580630  74.1254286  20.9389168   7.2752050
  73.5273947   9.3909824  17.5510908  73.5762102  10.2671947  17.1688678
  74.0696461   8.8487217  16.9782552  84.0128792  19.9350947  16.8312046
  83.2224336  19.9175086  16.2916545  83.7762147  20.4739241  17.5861082
  84.1326667  16.7843413  14.1444774  84.1824672  16.6193421  15.0860297
  84.0240591  15.9170672  13.7542655  81.4230430  12.7674341  15.4604081
  82.3240293  12.6280806  15.1688079  81.4978404  12.9328796  16.4002258
  75.7573235  10.1441196  14.3057267  74.8876545  10.4374762  14.0339856
  75.9932716  10.7281641  15.0264531  85.6344864  19.2040355  14.3886796
  85.3429673  19.5670335  15.2250257  85.0216996  18.4907363  14.2100128
  83.8832053  14.3272969  12.8566854  84.3586174  14.5200616  12.0485705
  82.9597618  14.3832155  12.6110237  78.4612269   6.3620813  11.8222687
  78.9794213   7.0981840  11.4969176  78.1067402   6.6684806  12.6569447
  82.5833722  11.2038730  11.0895159  83.5351144  11.3036827  11.1107383
  82.4137172  10.4116998  11.5993244  80.6048101   8.2894313  11.2754560
  80.0098033   8.5699326  10.5801049  80.3197798   8.7788214  12.0471301
  76.7843823  17.3458648  17.7065320  77.7046832  17.5237247  17.9005366
  76.7493406  16.4014694  17.5545019  69.7805895  15.2559683  10.3488101
  69.9991905  16.1876791  10.3676135  70.1931669  14.8967657  11.1342905
  74.6533761  10.8292889  19.7390850  74.5530487  11.7787246  19.6702941
  74.4355303  10.5011128  18.8666920  74.5165031  14.2590028  18.5555912
  74.0332112  15.0590388  18.7619801  74.6025970  14.2697972  17.6023356
  70.4438368  18.1494562  10.5924345  71.3981622  18.1178505  10.5254277
  70.2450892  17.6885186  11.4074571  71.0337750  16.7195678  13.1595143
  71.8530639  17.2139757  13.1829980  71.3074558  15.8027647  13.1312711
  68.7988597  23.6914182   7.6094543  68.6643065  22.9314583   7.0432541
  68.3820659  24.4155082   7.1423332  71.9557723  24.5883499   7.8212986
  71.8390107  25.5328931   7.7191676  71.1350169  24.2857060   8.2098785
  66.2872665  11.0533812  13.8587340  66.9331528  10.5432766  14.3474565
  66.0789816  11.7902494  14.4330765  78.8126057  18.1214660  19.3579481
  79.6817216  18.2955312  18.9966116  78.3332808  18.9409077  19.2355210
  72.9812237  25.2411761  11.0368914  73.8839484  25.2735371  11.3535409
  72.7549607  24.3112212  11.0515250  74.7365839  23.9942747   7.6978993
  73.7861470  23.9944609   7.5843365  75.0398325  23.2475482   7.1815028
  70.6270156   8.2001429  17.9562354  71.4901617   7.8438234  18.1665679
  70.0535566   7.8615324  18.6437759  90.4718532  29.8303286   8.7624755
  91.1096942  29.7110033   8.0588095  90.3539375  30.7784130   8.8212708
  87.2808239  29.7830714   8.6986280  86.9426750  29.6671778   7.8106815
  88.1498007  29.3821879   8.6787286  83.1395054  31.6366190   4.6883171
  82.5759920  31.5456127   3.9199459  83.0247449  30.8166095   5.1685664
  87.7628022  30.9365566  14.6572486  87.7516662  30.5418364  13.7852989
  87.9248661  30.2031638  15.2506257  80.6859486  33.1317382   7.5267391
  81.4780778  32.7908206   7.1113691  80.9256137  33.2412357   8.4469545
  82.6450240  32.3926295   0.3984770  83.4181116  31.8455282   0.2597646
  82.9975639  33.2570544   0.6099232  84.4835283  33.7202677  13.6051670
  84.1925149  34.6248308  13.4898336  85.1192267  33.7619205  14.3195739
  85.4091490  31.0979526  10.1953029  86.0055062  30.8735548   9.4809992
  85.4666461  30.3564271  10.7978477  87.0444348  29.9157214   3.9374284
  86.6802555  29.3887835   4.6487206  87.9011464  29.5255683   3.7640770
  89.4425168  33.4064093  10.6001463  89.1425891  34.3089132  10.4917270
  89.0976227  33.1396276  11.4522616  82.8937649  29.8577890   6.6338168
  81.9688146  29.7254104   6.8415859  83.1422063  30.6372109   7.1308110
  80.2546460  29.5011163   7.4681957  80.3838842  29.7545642   8.3821368
  79.5743912  30.0938871   7.1486612  84.4245948  40.1708413   3.5672431
  84.3469977  41.1216238   3.6460911  83.8207591  39.8254286   4.2247357
  86.9163177  27.3436279  16.2233798  86.1396512  27.9030199  16.2136662
  87.5553741  27.8293062  16.7448668  85.1709550  30.1521732  15.7851765
  85.9124234  30.6906776  15.5086588  84.4646535  30.7788021  15.9423317
  90.6464889  32.2950872  14.3823926  91.0548245  31.8533283  13.6378559
  89.9242151  31.7203500  14.6358119  86.9995959  27.2323479  11.7557483
  87.8457155  27.6562893  11.8992132  86.9394597  26.5757104  12.4496046
  90.9693704  32.8552063   8.1376215  90.3402567  33.0197777   7.4352283
  90.5819366  33.2693673   8.9087179  90.1495405  24.8927848  13.4138657
  89.9056337  25.6469908  12.8772933  90.4255335  25.2713195  14.2485904
  92.1033868  31.4366460  12.0915922  92.3150763  32.0798220  11.4150304
  92.0563616  30.6028776  11.6237853  89.7060097  24.0484281   8.9952495
  88.8444576  24.3465534   9.2869232  89.7322531  24.2654679   8.0633527
  86.5221666  32.5926471   5.4026300  86.9860012  32.8714174   4.6130923
  86.2578464  31.6909916   5.2199391  83.4145747  32.1397953   8.3406064
  83.9847104  32.5685221   7.7023548  84.0053859  31.8580537   9.0390249
  85.4590552  28.7149624   2.2115865  86.1614595  29.1670667   2.6789792
  85.1271181  28.0733442   2.8395759  83.9070914  27.3061380  16.5867075
  83.2769574  27.9877661  16.8202472  83.8007001  27.1944462  15.6420213
  79.2015886  26.9733176   7.5132999  78.4114940  27.2290705   7.0373110
  79.6927133  27.7881514   7.6185040  93.2179696  34.3138415  10.2638280
  94.0397139  33.9118603   9.9820961  93.2142098  34.2106650  11.2154396
  81.1530631  27.3377755   4.4716476  80.3561795  27.4496450   4.9899971
  80.9256224  27.6764408   3.6057366  86.9836299  33.8622459  12.4198990
  87.0480732  34.3242866  13.2557162  86.2747223  33.2319824  12.5481300
  77.4853589  27.2263667   9.9447990  77.7361627  28.1110677  10.2105566
  78.0213137  27.0468268   9.1723082  86.6984317  35.5290566   2.2877971
  86.5629991  36.3742102   2.7162818  87.2394129  35.7309844   1.5243904
  83.1851656  21.6082146  18.9492326  82.7918602  21.0548345  19.6239970
  84.0017797  21.9192724  19.3398843  80.1513714  33.0466004   2.8605896
  80.6638235  33.8409254   3.0111460  80.8036427  32.3492295   2.7939497
  81.9608599  36.1631760   4.9428649  82.1375227  37.0849725   4.7549633
  82.7565432  35.8490180   5.3723029  86.1019617  23.0240025  16.5412582
  86.8429331  23.6247178  16.4617045  86.3337540  22.2817663  15.9830625
  81.2460955  28.2096392  14.8190812  81.1314470  27.3081650  15.1197911
  80.3905473  28.4560089  14.4675629  88.3252793  36.1514133  16.4178313
  87.8816647  35.3650511  16.0999217  88.9870007  36.3393283  15.7522204
  83.0839914  37.6809934  10.9438991  83.6347339  37.5526998  10.1715985
  82.2451390  37.9804823  10.5933884  90.4234031  36.4316933  14.4459714
  90.4052506  37.2525814  13.9539983  91.3453951  36.3071008  14.6709855
  86.8807085  33.9461062  15.2883222  87.4135422  33.1849350  15.0582530
  86.3521166  33.6534714  16.0307377  78.1162631  31.3754658   3.6365466
  78.9537853  31.7851667   3.4199174  78.2940899  30.4354101   3.6065660
  85.3716206  21.5064513   7.7892279  86.2369203  21.3107322   7.4298169
  85.4393715  21.2774865   8.7161636  88.2459798  33.0747055   2.8002034
  87.7181160  32.3399814   2.4875272  87.7447301  33.8521731   2.5542003
  93.2252644  31.2696075   7.9169081  92.5676318  31.9595336   8.0049209
  94.0293043  31.6592507   8.2603067  82.9778526  23.7366721   5.1608646
  83.5522277  23.5141902   4.4281839  83.5649508  23.8055415   5.9137247
  89.2980477  39.6024772  -1.2766306  88.6242176  39.9056469  -0.6681349
  89.6846299  40.4053852  -1.6260849  88.5138934  27.0989903   8.2131363
  87.5961495  27.3204850   8.0553051  88.9299077  27.1736214   7.3543070
  92.8019899  34.6046449   4.0952165  92.3482226  33.7637359   4.1517356
  92.1713866  35.2407848   4.4326945  91.2452838  36.4422946   5.0301983
  91.5375813  37.0028003   4.3114349  91.7551459  36.7351507   5.7855142
  78.1388802  28.7145374   4.3076200  77.9413202  28.1214734   3.5827266
  77.5835466  28.4097584   5.0252139  86.1185526  28.6068480   6.4270793
  86.1734135  27.6542317   6.3513269  85.3076728  28.7627919   6.9112091
  84.0577886  27.2245540   4.1861172  83.2445751  27.5239711   4.5926364
  84.5536880  26.8301229   4.9035654  86.2086463  37.2203297   6.1195436
  86.1662642  37.4464143   5.1903968  87.1249162  36.9866672   6.2681238
  89.6552097  27.6887364  13.0176066  90.0101485  27.9158838  13.8770531
  90.3024228  28.0205741  12.3953321  83.5491960  24.7963896   9.8022407
  84.1891340  24.6552655   9.1045370  82.7169491  24.5098409   9.4261009
  95.4119214  32.8782327   8.7336666  95.8455720  32.7857616   9.5819720
  96.1250794  32.8539828   8.0956682  84.3252264  34.0966326   5.9157399
  85.1192863  33.6016646   5.7139974  83.6143957  33.5684189   5.5525105
  89.1447109  36.4784421  10.2669767  89.1984131  37.0475358  11.0347483
  88.2761890  36.6486307   9.9023804  80.6335028  28.2409408   1.9917152
  79.7032616  28.1793863   2.2087114  80.7292500  27.7185360   1.1953793
  80.5520577  24.7664221   4.5795393  80.8127394  25.6809554   4.4704554
  81.3737749  24.2988663   4.7292006  82.0245502  26.1801978  11.7494218
  82.6968555  25.9719340  11.1006867  81.1975289  25.9824064  11.3099450
  96.2734763  32.9206028  11.2669552  96.4670653  33.8251839  11.5128826
  96.1735381  32.4613447  12.1008137  87.9271074  22.8063919  13.7659879
  87.2798989  23.5053868  13.6724355  88.6972089  23.2400063  14.1336127
  91.3349872  33.0712771  16.8410432  91.1835378  32.8423322  15.9240516
  91.3254551  34.0283372  16.8541777  88.1035208  30.6444684  11.8256699
  89.0327268  30.7955843  11.6525666  87.6826238  30.7328704  10.9705345
  86.9023540  34.6695348   9.5955236  86.7634626  34.3014132  10.4681174
  86.1138136  35.1842987   9.4239194  87.4971692  39.7704444   0.9380773
  87.6723448  39.2992488   1.7526395  86.8104480  40.3970211   1.1662033
  88.4528755  34.0476951   6.9844074  88.1178588  34.0077721   7.8801724
  87.9532701  33.3821667   6.5114484  82.4272999  29.4544581  12.5096655
  82.2892797  28.7224819  13.1108194  83.3377923  29.3653481  12.2280843
  85.0555300  29.1664540  11.9980335  85.7654918  28.5257732  11.9566953
  85.0124608  29.4177435  12.9206516  93.0442079  36.1031893  14.9186914
  92.9854625  35.4191113  14.2517497  93.4461597  36.8450883  14.4667540
  83.7684234  26.1529758  13.8175974  83.2321591  25.7020496  14.4697571
  83.1800942  26.2875667  13.0746439  82.0632777  42.9193807   7.7120633
  82.3029376  43.5512331   8.3899652  81.2201974  42.5681847   7.9985992
  93.0459486  34.0671477  13.1500894  92.1586265  33.7297399  13.2727293
  93.6158037  33.3354508  13.3869659  74.6988633  30.3995569   6.4743945
  75.3859673  30.0857299   5.8864960  74.5436762  31.3036934   6.2011197
  79.5023355  25.2885766  10.9028969  79.4181544  24.6811435  10.1679379
  78.6806062  25.7794784  10.9038465  86.5760639  38.7272930  10.1162137
  86.5030811  39.5327901  10.6281441  86.1338032  38.9264895   9.2910158
  86.3650419  37.9644700   3.6264958  85.5817941  38.5066380   3.7203183
  87.0643164  38.4818679   4.0259200  89.0359323  38.6259764  12.2720296
  89.7487295  39.2607228  12.1996197  88.5449351  38.7223630  11.4560297
  86.2582038  25.9156712   5.9970848  85.8879825  25.3627752   6.6851754
  86.7541130  25.3114846   5.4445848  84.0871236  36.3754207  13.0925866
  84.7880696  37.0090690  13.2455261  83.6166351  36.7168939  12.3321506
  91.8872522  28.9298815  10.9178417  91.2343973  29.1774722  10.2630870
  92.2652902  28.1162953  10.5840894  88.8479696  38.9658508   5.0206587
  89.0302091  38.1480164   5.4834339  89.6712682  39.1826200   4.5831477
  89.1821862  37.8926693   2.2821636  89.7109628  37.3819147   1.6691798
  89.4450081  37.5769223   3.1467169  87.9360095  29.6718626  17.4044454
  87.2600732  29.5712755  18.0746829  88.7587729  29.5157839  17.8680451
  79.6838954  35.9090562  10.0256969  80.2692391  35.1634250  10.1584873
  79.4863793  36.2194519  10.9093633  82.5377610  38.9441810   5.0419411
  81.8687985  39.4287937   4.5583452  82.3990479  39.1911030   5.9562790
  74.2756609  28.4796162   8.7461412  74.3140709  27.9459753   9.5398530
  73.7696902  27.9531368   8.1272389  86.6782878  40.9785553  11.6402070
  87.2301186  41.1417175  12.4051155  87.0189072  41.5689991  10.9682095
  81.6547371  23.3260703  12.2423955  81.7188698  24.1875534  11.8301352
  81.5914492  22.7134705  11.5096313  81.1299644  25.3983835  15.8896989
  81.7571683  25.0160913  16.5034513  80.2727563  25.1798037  16.2552681
  91.5293753  35.8046811  17.4950724  92.0733657  36.4176769  17.0005679
  90.9480597  36.3626389  18.0117737  77.9065187  27.2060265   1.8215344
  78.2018628  26.2970943   1.7682397  77.0053223  27.1848004   1.4996346
  89.8151266  38.9267529   8.6265752  89.6902405  38.1257268   8.1176697
  90.4730357  39.4213722   8.1379722  81.4359434  25.2816261   7.8042892
  80.7146019  25.8952229   7.6650366  82.2252690  25.8174026   7.7259538
  91.8786174  36.7276549  10.2545302  90.9316509  36.6081900  10.1823629
  92.2268947  35.8399047  10.3371564  84.2385747  22.6170688  14.0783544
  84.7620149  22.8632984  14.8409853  84.0198081  23.4490722  13.6586681
  79.6353028  24.8874362   1.9454669  79.3065734  24.0071741   1.7629775
  79.9892399  24.8322031   2.8331058  88.8832607  36.5229265   6.4549654
  88.7357570  35.5945972   6.6357224  89.7086101  36.5449356   5.9706730
  82.7494851  25.1747332   2.3130146  83.0890924  25.7033253   1.5908755
  83.1966972  25.5127738   3.0888713  92.4866729  37.3457824   7.5414527
  93.4113277  37.1400685   7.4038978  92.3182032  37.0974225   8.4503869
  85.4438292  23.5584383  11.7633215  85.1035113  22.7592196  12.1653894
  84.7377299  23.8586094  11.1910048  86.0954764  20.6433695  10.2160538
  86.9180833  20.1694173  10.0939428  86.3392828  21.4224179  10.7159224
  83.6193343  27.3352816   8.0252516  83.4737924  27.6493119   8.9176798
  83.1418547  27.9537716   7.4723415  85.4789726  24.3255364   8.0733406
  85.4651295  23.4296457   7.7365704  86.1962154  24.3326027   8.7071692
  87.3315856  24.7592704  10.1186533  87.0733634  25.6809775  10.1170864
  86.8000897  24.3623138  10.8086997  92.2762045  37.8643491   2.8976619
  92.4498923  37.2989914   2.1450471  92.7690936  38.6644386   2.7156108
  78.0939005  29.8758160  10.9640177  77.5492473  30.6517968  11.0960452
  78.9718355  30.2228965  10.8059299  78.8805027  29.0028056  13.8570334
  78.1386763  29.1510692  14.4434965  78.5597771  29.2636322  12.9937084
  86.8248690  38.5444035  13.6550724  87.1335816  38.2993181  14.5273424
  87.6224172  38.7490673  13.1669594  86.8469302  40.6981944   5.8856101
  86.4074292  40.2058323   6.5788957  87.5977419  40.1554912   5.6448176
  79.3261641  36.8893485   5.8880729  80.1519660  36.5897257   5.5079372
  78.9755693  36.1201108   6.3370517  84.2943174  36.2419953   7.9578402
  83.6723183  35.5790658   7.6580630  84.9648041  36.2681085   7.2752050
  77.5270246  34.8079812   6.8469662  76.6902154  34.3801986   6.6653664
  77.4993891  35.0012255   7.7840454  84.3667701  24.7201741  17.5510908
  84.4155857  25.5963864  17.1688678  84.9090215  24.1779134  16.9782552
  94.8522547  35.2642865  16.8312046  94.0618091  35.2467003  16.2916545
  94.6155901  35.8031158  17.5861082  94.9720422  32.1135331  14.1444774
  95.0218427  31.9485338  15.0860297  94.8634345  31.2462590  13.7542655
  83.8556681  34.7923877   1.4336863  84.0044801  35.4759341   0.7803536
  84.6623124  34.7728967   1.9486319  92.2624184  28.0966259  15.4604081
  93.1634047  27.9572724  15.1688079  92.3372159  28.2620714  16.4002258
  86.5966990  25.4733114  14.3057267  85.7270299  25.7666680  14.0339856
  86.8326470  26.0573559  15.0264531  96.4738619  34.5332273  14.3886796
  96.1823427  34.8962253  15.2250257  95.8610750  33.8199281  14.2100128
  94.7225807  29.6564887  12.8566854  95.1979929  29.8492533  12.0485705
  93.7991372  29.7124073  12.6110237  81.6109314  30.8189054   2.4397932
  81.3655356  29.9151384   2.6378142  81.7805228  30.8206205   1.4977410
  89.3006024  21.6912731  11.8222687  89.8187967  22.4273758  11.4969176
  88.9461156  21.9976724  12.6569447  80.8804961  26.5517412  -0.0615907
  80.1874206  26.6261767  -0.7175871  80.6356713  25.7877756   0.4605610
  87.3552086  37.2872007  -1.0951390  86.7826053  37.9062194  -1.5480918
  87.9284880  37.8371369  -0.5611468  93.4227476  26.5330647  11.0895159
  94.3744899  26.6328745  11.1107383  93.2530926  25.7408916  11.5993244
  91.4441856  23.6186230  11.2754560  90.8491788  23.8991243  10.5801049
  91.1591552  24.1080131  12.0471301  87.6237577  32.6750566  17.7065320
  88.5440587  32.8529165  17.9005366  87.5887160  31.7306611  17.5545019
  76.8419742  27.8689160   6.6318595  76.5222527  27.0154468   6.3392969
  76.2953170  28.0837738   7.3876562  80.6199650  30.5851601  10.3488101
  80.8385660  31.5168709  10.3676135  81.0325424  30.2259575  11.1342905
  85.4927515  26.1584806  19.7390850  85.3924242  27.1079163  19.6702941
  85.2749057  25.8303045  18.8666920  76.7108002  31.4892071   8.6011716
  76.0171474  31.0746024   8.0881671  77.4580993  31.5312608   8.0045135
  85.3558785  29.5881945  18.5555912  84.8725867  30.3882305  18.7619801
  85.4419724  29.5989890  17.6023356  78.6244745  31.4210325   6.4777731
  78.6015433  31.5198012   5.5259614  78.9345381  32.2675476   6.7994897
  81.2832123  33.4786480  10.5924345  82.2375376  33.4470422  10.5254277
  81.0844646  33.0177104  11.4074571  81.8731505  32.0487596  13.1595143
  82.6924394  32.5431675  13.1829980  82.1468312  31.1319564  13.1312711
  79.6382351  39.0206100   7.6094543  79.5036819  38.2606500   7.0432541
  79.2214414  39.7446999   7.1423332  82.7951477  39.9175417   7.8212986
  82.6783861  40.8620849   7.7191676  81.9743924  39.6148978   8.2098785
  77.1266419  26.3825730  13.8587340  77.7725283  25.8724684  14.3474565
  76.9183570  27.1194412  14.4330765  89.6519811  33.4506577  19.3579481
  90.5210971  33.6247230  18.9966116  89.1726563  34.2700994  19.2355210
  83.8205991  40.5703678  11.0368914  84.7233238  40.6027289  11.3535409
  83.5943361  39.6404129  11.0515250  85.5759593  39.3234665   7.6978993
  84.6255224  39.3236527   7.5843365  85.8792080  38.5767400   7.1815028
  81.4663910  23.5293347  17.9562354  82.3295372  23.1730152  18.1665679
  80.8929321  23.1907242  18.6437759 101.3112287  45.1595203   8.7624755
 101.9490697  45.0401951   8.0588095 101.1933130  46.1076047   8.8212708
  98.1201993  45.1122631   8.6986280  97.7820505  44.9963696   7.8106815
  98.9891761  44.7113797   8.6787286  93.9788809  46.9658108   4.6883171
  93.4153674  46.8748045   3.9199459  93.8641204  46.1458012   5.1685664
  98.6021776  46.2657483  14.6572486  98.5910417  45.8710281  13.7852989
  98.7642416  45.5323556  15.2506257  91.5253241  48.4609299   7.5267391
  92.3174533  48.1200124   7.1113691  91.7649891  48.5704275   8.4469545
  93.4843995  47.7218213   0.3984770  94.2574871  47.1747200   0.2597646
  93.8369394  48.5862462   0.6099232  95.3229037  49.0494595  13.6051670
  95.0318903  49.9540226  13.4898336  95.9586022  49.0911123  14.3195739
  96.2485244  46.4271444  10.1953029  96.8448816  46.2027466   9.4809992
  96.3060216  45.6856189  10.7978477  97.8838102  45.2449132   3.9374284
  97.5196309  44.7179753   4.6487206  98.7405218  44.8547601   3.7640770
 100.2818922  48.7356010  10.6001463  99.9819646  49.6381049  10.4917270
  99.9369982  48.4688194  11.4522616  93.7331404  45.1869807   6.6338168
  92.8081900  45.0546021   6.8415859  93.9815817  45.9664027   7.1308110
  91.0940215  44.8303081   7.4681957  91.2232596  45.0837560   8.3821368
  90.4137666  45.4230789   7.1486612  95.2639702  55.5000331   3.5672431
  95.1863732  56.4508156   3.6460911  94.6601346  55.1546203   4.2247357
  97.7556932  42.6728196  16.2233798  96.9790266  43.2322116  16.2136662
  98.3947495  43.1584979  16.7448668  96.0103304  45.4813650  15.7851765
  96.7517989  46.0198694  15.5086588  95.3040290  46.1079938  15.9423317
 101.4858644  47.6242790  14.3823926 101.8942000  47.1825201  13.6378559
 100.7635905  47.0495418  14.6358119  97.8389714  42.5615397  11.7557483
  98.6850909  42.9854810  11.8992132  97.7788352  41.9049021  12.4496046
 101.8087459  48.1843981   8.1376215 101.1796321  48.3489695   7.4352283
 101.4213121  48.5985590   8.9087179 100.9889159  40.2219765  13.4138657
 100.7450091  40.9761826  12.8772933 101.2649090  40.6005113  14.2485904
 102.9427622  46.7658378  12.0915922 103.1544517  47.4090137  11.4150304
 102.8957370  45.9320694  11.6237853 100.5453851  39.3776198   8.9952495
  99.6838330  39.6757452   9.2869232 100.5716286  39.5946597   8.0633527
  97.3615420  47.9218389   5.4026300  97.8253766  48.2006092   4.6130923
  97.0972219  47.0201833   5.2199391  94.2539502  47.4689870   8.3406064
  94.8240859  47.8977139   7.7023548  94.8447613  47.1872455   9.0390249
  96.2984307  44.0441541   2.2115865  97.0008350  44.4962585   2.6789792
  95.9664935  43.4025360   2.8395759  94.7464668  42.6353298  16.5867075
  94.1163329  43.3169579  16.8202472  94.6400756  42.5236379  15.6420213
  90.0409640  42.3025094   7.5132999  89.2508694  42.5582622   7.0373110
  90.5320888  43.1173432   7.6185040 104.0573450  49.6430333  10.2638280
 104.8790894  49.2410520   9.9820961 104.0535853  49.5398567  11.2154396
  91.9924386  42.6669673   4.4716476  91.1955549  42.7788367   4.9899971
  91.7649978  43.0056325   3.6057366  97.8230053  49.1914376  12.4198990
  97.8874486  49.6534784  13.2557162  97.1140977  48.5611741  12.5481300
  88.3247343  42.5555584   9.9447990  88.5755382  43.4402594  10.2105566
  88.8606892  42.3760186   9.1723082  97.5378071  50.8582484   2.2877971
  97.4023746  51.7034020   2.7162818  98.0787884  51.0601761   1.5243904
  94.0245411  36.9374064  18.9492326  93.6312356  36.3840262  19.6239970
  94.8411551  37.2484642  19.3398843  90.9907469  48.3757922   2.8605896
  91.5031989  49.1701172   3.0111460  91.6430181  47.6784212   2.7939497
  92.8002353  51.4923678   4.9428649  92.9768982  52.4141643   4.7549633
  93.5959187  51.1782097   5.3723029  96.9413372  38.3531943  16.5412582
  97.6823085  38.9539096  16.4617045  97.1731295  37.6109581  15.9830625
  92.0854710  43.5388310  14.8190812  91.9708225  42.6373567  15.1197911
  91.2299228  43.7852007  14.4675629  99.1646548  51.4806050  16.4178313
  98.7210402  50.6942429  16.0999217  99.8263761  51.6685201  15.7522204
  93.9233669  53.0101852  10.9438991  94.4741094  52.8818915  10.1715985
  93.0845145  53.3096741  10.5933884 101.2627786  51.7608850  14.4459714
 101.2446261  52.5817731  13.9539983 102.1847706  51.6362925  14.6709855
  97.7200840  49.2752980  15.2883222  98.2529177  48.5141268  15.0582530
  97.1914921  48.9826632  16.0307377  88.9556385  46.7046576   3.6365466
  89.7931607  47.1143585   3.4199174  89.1334653  45.7646018   3.6065660
  96.2109961  36.8356431   7.7892279  97.0762958  36.6399239   7.4298169
  96.2787470  36.6066782   8.7161636  99.0853552  48.4038972   2.8002034
  98.5574914  47.6691732   2.4875272  98.5841055  49.1813649   2.5542003
 104.0646398  46.5987993   7.9169081 103.4070073  47.2887254   8.0049209
 104.8686798  46.9884425   8.2603067  93.8172280  39.0658638   5.1608646
  94.3916032  38.8433820   4.4281839  94.4043262  39.1347333   5.9137247
  99.3532688  42.4281821   8.2131363  98.4355249  42.6496768   8.0553051
  99.7692832  42.5028131   7.3543070 103.6413653  49.9338367   4.0952165
 103.1875981  49.0929277   4.1517356 103.0107620  50.5699765   4.4326945
 102.0846593  51.7714864   5.0301983 102.3769567  52.3319921   4.3114349
 102.5945213  52.0643425   5.7855142  88.9782556  44.0437291   4.3076200
  88.7806956  43.4506652   3.5827266  88.4229220  43.7389502   5.0252139
  96.9579280  43.9360398   6.4270793  97.0127890  42.9834234   6.3513269
  96.1470482  44.0919837   6.9112091  94.8971640  42.5537458   4.1861172
  94.0839506  42.8531628   4.5926364  95.3930634  42.1593146   4.9035654
  97.0480218  52.5495215   6.1195436  97.0056397  52.7756061   5.1903968
  97.9642917  52.3158589   6.2681238 100.4945852  43.0179282  13.0176066
 100.8495239  43.2450755  13.8770531 101.1417983  43.3497659  12.3953321
  94.3885715  40.1255813   9.8022407  95.0285094  39.9844572   9.1045370
  93.5563245  39.8390327   9.4261009 106.2512968  48.2074245   8.7336666
 106.6849475  48.1149534   9.5819720 106.9644549  48.1831746   8.0956682
  95.1646019  49.4258244   5.9157399  95.9586617  48.9308564   5.7139974
  94.4537711  48.8976107   5.5525105  99.9840863  51.8076339  10.2669767
 100.0377885  52.3767275  11.0347483  99.1155645  51.9778224   9.9023804
  91.4728782  43.5701325   1.9917152  90.5426370  43.5085781   2.2087114
  91.5686254  43.0477278   1.1953793  91.3914331  40.0956138   4.5795393
  91.6521149  41.0101471   4.4704554  92.2131504  39.6280581   4.7292006
  92.8639257  41.5093895  11.7494218  93.5362310  41.3011257  11.1006867
  92.0369043  41.3115981  11.3099450 107.1128518  48.2497946  11.2669552
 107.3064408  49.1543756  11.5128826 107.0129136  47.7905365  12.1008137
  98.7664829  38.1355836  13.7659879  98.1192744  38.8345786  13.6724355
  99.5365844  38.5691980  14.1336127 102.1743626  48.4004688  16.8410432
 102.0229133  48.1715240  15.9240516 102.1648306  49.3575290  16.8541777
  98.9428963  45.9736601  11.8256699  99.8721023  46.1247761  11.6525666
  98.5219993  46.0620622  10.9705345  97.7417295  49.9987266   9.5955236
  97.6028380  49.6306050  10.4681174  96.9531891  50.5134905   9.4239194
  98.3365447  55.0996362   0.9380773  98.5117202  54.6284405   1.7526395
  97.6498235  55.7262128   1.1662033  99.2922510  49.3768868   6.9844074
  98.9572342  49.3369638   7.8801724  98.7926456  48.7113584   6.5114484
  93.2666754  44.7836498  12.5096655  93.1286552  44.0516737  13.1108194
  94.1771677  44.6945398  12.2280843  95.8949054  44.4956458  11.9980335
  96.6048673  43.8549650  11.9566953  95.8518363  44.7469353  12.9206516
 103.8835833  51.4323811  14.9186914 103.8248379  50.7483031  14.2517497
 104.2855352  52.1742801  14.4667540  94.6077988  41.4821676  13.8175974
  94.0715345  41.0312414  14.4697571  94.0194697  41.6167584  13.0746439
  92.9026532  58.2485725   7.7120633  93.1423130  58.8804249   8.3899652
  92.0595728  57.8973765   7.9985992 103.8853240  49.3963395  13.1500894
 102.9980019  49.0589317  13.2727293 104.4551791  48.6646426  13.3869659
  85.5382388  45.7287487   6.4743945  86.2253427  45.4149217   5.8864960
  85.3830516  46.6328851   6.2011197  90.3417110  40.6177683  10.9028969
  90.2575298  40.0103353  10.1679379  89.5199816  41.1086702  10.9038465
  97.4154394  54.0564847  10.1162137  97.3424565  54.8619819  10.6281441
  96.9731787  54.2556813   9.2910158  97.2044173  53.2936617   3.6264958
  96.4211695  53.8358298   3.7203183  97.9036919  53.8110597   4.0259200
  99.8753077  53.9551681  12.2720296 100.5881050  54.5899146  12.1996197
  99.3843106  54.0515547  11.4560297  97.0975792  41.2448630   5.9970848
  96.7273580  40.6919670   6.6851754  97.5934885  40.6406763   5.4445848
  94.9264991  51.7046125  13.0925866  95.6274450  52.3382608  13.2455261
  94.4560106  52.0460856  12.3321506 102.7266277  44.2590732  10.9178417
 102.0737727  44.5066640  10.2630870 103.1046657  43.4454870  10.5840894
  99.6873451  54.2950425   5.0206587  99.8695845  53.4772081   5.4834339
 100.5106437  54.5118118   4.5831477 100.0215616  53.2218611   2.2821636
 100.5503383  52.7111065   1.6691798 100.2843836  52.9061141   3.1467169
  98.7753850  45.0010543  17.4044454  98.0994487  44.9004673  18.0746829
  99.5981484  44.8449757  17.8680451  90.5232709  51.2382480  10.0256969
  91.1086146  50.4926168  10.1584873  90.3257547  51.5486437  10.9093633
  93.3771364  54.2733727   5.0419411  92.7081739  54.7579855   4.5583452
  93.2384234  54.5202948   5.9562790  85.1150364  43.8088080   8.7461412
  85.1534463  43.2751671   9.5398530  84.6090656  43.2823286   8.1272389
  97.5176633  56.3077471  11.6402070  98.0694941  56.4709092  12.4051155
  97.8582826  56.8981909  10.9682095  92.4941126  38.6552621  12.2423955
  92.5582452  39.5167451  11.8301352  92.4308246  38.0426622  11.5096313
  91.9693398  40.7275753  15.8896989  92.5965437  40.3452830  16.5034513
  91.1121317  40.5089955  16.2552681 102.3687507  51.1338728  17.4950724
 102.9127411  51.7468687  17.0005679 101.7874352  51.6918307  18.0117737
  88.7458941  42.5352182   1.8215344  89.0412382  41.6262861   1.7682397
  87.8446977  42.5139922   1.4996346 100.6545020  54.2559446   8.6265752
 100.5296159  53.4549186   8.1176697 101.3124111  54.7505640   8.1379722
  92.2753188  40.6108179   7.8042892  91.5539774  41.2244146   7.6650366
  93.0646444  41.1465944   7.7259538 102.7179928  52.0568466  10.2545302
 101.7710264  51.9373818  10.1823629 103.0662701  51.1690964  10.3371564
  95.0779502  37.9462605  14.0783544  95.6013904  38.1924902  14.8409853
  94.8591835  38.7782640  13.6586681  90.4746783  40.2166280   1.9454669
  90.1459489  39.3363659   1.7629775  90.8286154  40.1613949   2.8331058
  99.7226362  51.8521183   6.4549654  99.5751324  50.9237890   6.6357224
 100.5479855  51.8741273   5.9706730  93.5888606  40.5039250   2.3130146
  93.9284678  41.0325171   1.5908755  94.0360726  40.8419656   3.0888713
 103.3260484  52.6749741   7.5414527 104.2507031  52.4692603   7.4038978
 103.1575787  52.4266142   8.4503869  96.2832047  38.8876300  11.7633215
  95.9428867  38.0884113  12.1653894  95.5771053  39.1878011  11.1910048
  96.9348519  35.9725613  10.2160538  97.7574588  35.4986091  10.0939428
  97.1786582  36.7516097  10.7159224  94.4587097  42.6644733   8.0252516
  94.3131678  42.9785037   8.9176798  93.9812301  43.2829634   7.4723415
  96.3183480  39.6547281   8.0733406  96.3045049  38.7588375   7.7365704
  97.0355908  39.6617945   8.7071692  98.1709611  40.0884622  10.1186533
  97.9127389  41.0101692  10.1170864  97.6394651  39.6915056  10.8086997
 103.1155800  53.1935409   2.8976619 103.2892677  52.6281831   2.1450471
 103.6084691  53.9936304   2.7156108  88.9332760  45.2050078  10.9640177
  88.3886228  45.9809886  11.0960452  89.8112109  45.5520882  10.8059299
  89.7198781  44.3319974  13.8570334  88.9780517  44.4802609  14.4434965
  89.3991526  44.5928240  12.9937084  97.6642444  53.8735952  13.6550724
  97.9729570  53.6285099  14.5273424  98.4617926  54.0782591  13.1669594
  97.6863056  56.0273862   5.8856101  97.2468046  55.5350241   6.5788957
  98.4371173  55.4846830   5.6448176  90.1655395  52.2185403   5.8880729
  90.9913415  51.9189175   5.5079372  89.8149447  51.4493025   6.3370517
  95.1336928  51.5711871   7.9578402  94.5116938  50.9082576   7.6580630
  95.8041795  51.5973003   7.2752050  88.3664000  50.1371729   6.8469662
  87.5295908  49.7093904   6.6653664  88.3387646  50.3304173   7.7840454
  95.2061456  40.0493659  17.5510908  95.2549611  40.9255782  17.1688678
  95.7483970  39.5071052  16.9782552 105.6916301  50.5934782  16.8312046
 104.9011845  50.5758921  16.2916545 105.4549656  51.1323076  17.5861082
 105.8114176  47.4427249  14.1444774 105.8612181  47.2777256  15.0860297
 105.7028100  46.5754508  13.7542655  94.6950435  50.1215794   1.4336863
  94.8438556  50.8051259   0.7803536  95.5016879  50.1020884   1.9486319
 103.1017939  43.4258177  15.4604081 104.0027802  43.2864642  15.1688079
 103.1765913  43.5912632  16.4002258  97.4360744  40.8025031  14.3057267
  96.5664054  41.0958598  14.0339856  97.6720225  41.3865476  15.0264531
 107.3132373  49.8624190  14.3886796 107.0217182  50.2254171  15.2250257
 106.7004505  49.1491198  14.2100128 105.5619562  44.9856805  12.8566854
 106.0373683  45.1784451  12.0485705 104.6385127  45.0415991  12.6110237
  92.4503068  46.1480972   2.4397932  92.2049110  45.2443302   2.6378142
  92.6198983  46.1498122   1.4977410 100.1399778  37.0204648  11.8222687
 100.6581722  37.7565675  11.4969176  99.7854911  37.3268642  12.6569447
  91.7198716  41.8809330  -0.0615907  91.0267961  41.9553685  -0.7175871
  91.4750468  41.1169673   0.4605610  98.1945841  52.6163925  -1.0951390
  97.6219808  53.2354112  -1.5480918  98.7678634  53.1663287  -0.5611468
 104.2621231  41.8622565  11.0895159 105.2138653  41.9620663  11.1107383
 104.0924681  41.0700833  11.5993244 102.2835610  38.9478148  11.2754560
 101.6885542  39.2283161  10.5801049 101.9985307  39.4372049  12.0471301
  98.4631332  48.0042484  17.7065320  99.3834341  48.1821083  17.9005366
  98.4280915  47.0598529  17.5545019  87.6813497  43.1981077   6.6318595
  87.3616281  42.3446386   6.3392969  87.1346925  43.4129656   7.3876562
  91.4593404  45.9143518  10.3488101  91.6779414  46.8460626  10.3676135
  91.8719178  45.5551493  11.1342905  96.3321270  41.4876724  19.7390850
  96.2317996  42.4371081  19.6702941  96.1142812  41.1594963  18.8666920
  87.5501757  46.8183989   8.6011716  86.8565228  46.4037942   8.0881671
  88.2974748  46.8604525   8.0045135  96.1952540  44.9173863  18.5555912
  95.7119621  45.7174223  18.7619801  96.2813479  44.9281808  17.6023356
  89.4638499  46.7502243   6.4777731  89.4409187  46.8489930   5.5259614
  89.7739136  47.5967393   6.7994897  92.1225877  48.8078398  10.5924345
  93.0769131  48.7762340  10.5254277  91.9238401  48.3469021  11.4074571
  92.7125259  47.3779514  13.1595143  93.5318148  47.8723592  13.1829980
  92.9862067  46.4611482  13.1312711  90.4776106  54.3498017   7.6094543
  90.3430574  53.5898418   7.0432541  90.0608168  55.0738917   7.1423332
  93.6345232  55.2467334   7.8212986  93.5177616  56.1912767   7.7191676
  92.8137678  54.9440896   8.2098785  87.9660173  41.7117648  13.8587340
  88.6119037  41.2016602  14.3474565  87.7577325  42.4486329  14.4330765
 100.4913566  48.7798495  19.3579481 101.3604725  48.9539147  18.9966116
 100.0120317  49.5992912  19.2355210  94.6599746  55.8995596  11.0368914
  95.5626993  55.9319206  11.3535409  94.4337116  54.9696047  11.0515250
  96.4153348  54.6526583   7.6978993  95.4648979  54.6528444   7.5843365
  96.7185834  53.9059317   7.1815028  92.3057664  38.8585265  17.9562354
  93.1689126  38.5022070  18.1665679  91.7323075  38.5199159  18.6437759
 108.9595748  60.4414549   8.6986280 108.6214259  60.3255614   7.8106815
 109.8285516  60.0405714   8.6787286 109.4415531  61.5949401  14.6572486
 109.4304171  61.2002199  13.7852989 109.6036170  60.8615473  15.2506257
 102.3646995  63.7901217   7.5267391 103.1568287  63.4492042   7.1113691
 102.6043645  63.8996192   8.4469545 106.1622792  64.3786513  13.6051670
 105.8712658  65.2832144  13.4898336 106.7979776  64.4203040  14.3195739
 107.0878999  61.7563361  10.1953029 107.6842571  61.5319384   9.4809992
 107.1453970  61.0148107  10.7978477 111.1212677  64.0647928  10.6001463
 110.8213400  64.9672967  10.4917270 110.7763736  63.7980111  11.4522616
 104.5725158  60.5161725   6.6338168 103.6475655  60.3837939   6.8415859
 104.8209572  61.2955944   7.1308110 101.9333969  60.1594999   7.4681957
 102.0626351  60.4129477   8.3821368 101.2531421  60.7522707   7.1486612
 108.5950686  58.0020114  16.2233798 107.8184021  58.5614034  16.2136662
 109.2341250  58.4876897  16.7448668 106.8497059  60.8105567  15.7851765
 107.5911743  61.3490611  15.5086588 106.1434044  61.4371856  15.9423317
 112.3252398  62.9534708  14.3823926 112.7335754  62.5117118  13.6378559
 111.6029660  62.3787335  14.6358119 108.6783468  57.8907315  11.7557483
 109.5244664  58.3146728  11.8992132 108.6182106  57.2340939  12.4496046
 111.8282914  55.5511683  13.4138657 111.5843846  56.3053743  12.8772933
 112.1042844  55.9297031  14.2485904 113.7821377  62.0950295  12.0915922
 113.9938272  62.7382055  11.4150304 113.7351125  61.2612612  11.6237853
 111.3847606  54.7068116   8.9952495 110.5232085  55.0049369   9.2869232
 111.4110040  54.9238515   8.0633527 105.0933256  62.7981788   8.3406064
 105.6634613  63.2269056   7.7023548 105.6841368  62.5164373   9.0390249
 105.5858423  57.9645215  16.5867075 104.9557083  58.6461496  16.8202472
 105.4794510  57.8528297  15.6420213 100.8803395  57.6317012   7.5132999
 100.0902449  57.8874540   7.0373110 101.3714642  58.4465349   7.6185040
 102.8318140  57.9961591   4.4716476 102.0349304  58.1080285   4.9899971
 102.6043733  58.3348243   3.6057366 108.6623808  64.5206294  12.4198990
 108.7268240  64.9826701  13.2557162 107.9534732  63.8903659  12.5481300
  99.1641098  57.8847502   9.9447990  99.4149136  58.7694512  10.2105566
  99.7000646  57.7052103   9.1723082 104.8639165  52.2665981  18.9492326
 104.4706111  51.7132180  19.6239970 105.6805306  52.5776560  19.3398843
 107.7807126  53.6823860  16.5412582 108.5216840  54.2831014  16.4617045
 108.0125049  52.9401498  15.9830625 102.9248464  58.8680228  14.8190812
 102.8101979  57.9665485  15.1197911 102.0692982  59.1143924  14.4675629
 110.0040302  66.8097968  16.4178313 109.5604156  66.0234347  16.0999217
 110.6657516  66.9977118  15.7522204 104.7627423  68.3393770  10.9438991
 105.3134848  68.2110833  10.1715985 103.9238899  68.6388659  10.5933884
 112.1021540  67.0900768  14.4459714 112.0840015  67.9109649  13.9539983
 113.0241460  66.9654843  14.6709855 108.5594594  64.6044897  15.2883222
 109.0922931  63.8433186  15.0582530 108.0308675  64.3118549  16.0307377
 107.0503715  52.1648348   7.7892279 107.9156712  51.9691157   7.4298169
 107.1181224  51.9358700   8.7161636 104.6566035  54.3950556   5.1608646
 105.2309786  54.1725738   4.4281839 105.2437017  54.4639251   5.9137247
 110.1926443  57.7573739   8.2131363 109.2749004  57.9788686   8.0553051
 110.6086586  57.8320049   7.3543070  99.8176311  59.3729209   4.3076200
  99.6200711  58.7798570   3.5827266  99.2622975  59.0681419   5.0252139
 107.7973035  59.2652316   6.4270793 107.8521644  58.3126152   6.3513269
 106.9864237  59.4211755   6.9112091 105.7365395  57.8829375   4.1861172
 104.9233260  58.1823546   4.5926364 106.2324389  57.4885064   4.9035654
 111.3339606  58.3471200  13.0176066 111.6888994  58.5742673  13.8770531
 111.9811737  58.6789577  12.3953321 105.2279469  55.4547731   9.8022407
 105.8678849  55.3136490   9.1045370 104.3957000  55.1682244   9.4261009
 102.2308086  55.4248056   4.5795393 102.4914903  56.3393389   4.4704554
 103.0525258  54.9572498   4.7292006 103.7033011  56.8385813  11.7494218
 104.3756064  56.6303175  11.1006867 102.8762798  56.6407899  11.3099450
 109.6058583  53.4647754  13.7659879 108.9586498  54.1637704  13.6724355
 110.3759598  53.8983898  14.1336127 113.0137381  63.7296606  16.8410432
 112.8622887  63.5007158  15.9240516 113.0042060  64.6867208  16.8541777
 109.7822717  61.3028519  11.8256699 110.7114777  61.4539678  11.6525666
 109.3613747  61.3912540  10.9705345 108.5811049  65.3279183   9.5955236
 108.4422135  64.9597968  10.4681174 107.7925645  65.8426823   9.4239194
 104.1060508  60.1128416  12.5096655 103.9680306  59.3808655  13.1108194
 105.0165432  60.0237316  12.2280843 106.7342809  59.8248375  11.9980335
 107.4442427  59.1841568  11.9566953 106.6912117  60.0761270  12.9206516
 114.7229588  66.7615729  14.9186914 114.6642134  66.0774949  14.2517497
 115.1249106  67.5034719  14.4667540 105.4471743  56.8113593  13.8175974
 104.9109100  56.3604332  14.4697571 104.8588451  56.9459502  13.0746439
 114.7246995  64.7255313  13.1500894 113.8373774  64.3881234  13.2727293
 115.2945546  63.9938344  13.3869659  96.3776142  61.0579404   6.4743945
  97.0647182  60.7441134   5.8864960  96.2224271  61.9620769   6.2011197
 101.1810864  55.9469601  10.9028969 101.0969053  55.3395270  10.1679379
 100.3593571  56.4378619  10.9038465 107.9369547  56.5740547   5.9970848
 107.5667334  56.0211588   6.6851754 108.4328639  55.9698681   5.4445848
 105.7658745  67.0338042  13.0925866 106.4668205  67.6674525  13.2455261
 105.2953860  67.3752774  12.3321506 113.5660031  59.5882650  10.9178417
 112.9131482  59.8358557  10.2630870 113.9440411  58.7746788  10.5840894
 109.6147604  60.3302461  17.4044454 108.9388241  60.2296590  18.0746829
 110.4375238  60.1741675  17.8680451 101.3626463  66.5674397  10.0256969
 101.9479900  65.8218085  10.1584873 101.1651302  66.8778354  10.9093633
  95.9544118  59.1379998   8.7461412  95.9928218  58.6043588   9.5398530
  95.4484411  58.6115203   8.1272389 103.3334880  53.9844538  12.2423955
 103.3976207  54.8459369  11.8301352 103.2702001  53.3718540  11.5096313
 102.8087153  56.0567671  15.8896989 103.4359192  55.6744748  16.5034513
 101.9515072  55.8381873  16.2552681 113.2081262  66.4630646  17.4950724
 113.7521166  67.0760604  17.0005679 112.6268106  67.0210224  18.0117737
  99.5852696  57.8644100   1.8215344  99.8806137  56.9554778   1.7682397
  98.6840731  57.8431839   1.4996346 103.1146943  55.9400096   7.8042892
 102.3933528  56.5536064   7.6650366 103.9040198  56.4757861   7.7259538
 105.9173256  53.2754523  14.0783544 106.4407658  53.5216819  14.8409853
 105.6985590  54.1074558  13.6586681 101.3140537  55.5458198   1.9454669
 100.9853243  54.6655576   1.7629775 101.6679908  55.4905866   2.8331058
 107.1225801  54.2168218  11.7633215 106.7822622  53.4176031  12.1653894
 106.4164808  54.5169929  11.1910048 107.7742273  51.3017530  10.2160538
 108.5968342  50.8278009  10.0939428 108.0180337  52.0808014  10.7159224
 105.2980852  57.9936651   8.0252516 105.1525433  58.3076954   8.9176798
 104.8206055  58.6121551   7.4723415 107.1577235  54.9839199   8.0733406
 107.1438804  54.0880292   7.7365704 107.8749663  54.9909863   8.7071692
 109.0103365  55.4176539  10.1186533 108.7521143  56.3393610  10.1170864
 108.4788406  55.0206974  10.8086997  99.7726514  60.5341996  10.9640177
  99.2279982  61.3101803  11.0960452 100.6505864  60.8812800  10.8059299
 100.5592536  59.6611892  13.8570334  99.8174272  59.8094527  14.4434965
 100.2385280  59.9220157  12.9937084 108.5036199  69.2027870  13.6550724
 108.8123325  68.9577017  14.5273424 109.3011681  69.4074508  13.1669594
  99.2057755  65.4663647   6.8469662  98.3689663  65.0385821   6.6653664
  99.1781400  65.6596090   7.7840454 106.0455210  55.3785577  17.5510908
 106.0943366  56.2547700  17.1688678 106.5877724  54.8362970  16.9782552
 116.5310056  65.9226700  16.8312046 115.7405600  65.9050839  16.2916545
 116.2943410  66.4614994  17.5861082 116.6507931  62.7719166  14.1444774
 116.7005936  62.6069174  15.0860297 116.5421854  61.9046425  13.7542655
 113.9411693  58.7550094  15.4604081 114.8421556  58.6156559  15.1688079
 114.0159668  58.9204549  16.4002258 108.2754499  56.1316949  14.3057267
 107.4057808  56.4250515  14.0339856 108.5113979  56.7157394  15.0264531
 118.1526128  65.1916108  14.3886796 117.8610936  65.5546088  15.2250257
 117.5398259  64.4783116  14.2100128 116.4013316  60.3148723  12.8566854
 116.8767438  60.5076369  12.0485705 115.4778881  60.3707908  12.6110237
 110.9793533  52.3496566  11.8222687 111.4975476  53.0857593  11.4969176
 110.6248665  52.6560559  12.6569447 115.1014985  57.1914483  11.0895159
 116.0532408  57.2912580  11.1107383 114.9318435  56.3992751  11.5993244
 113.1229364  54.2770066  11.2754560 112.5279297  54.5575079  10.5801049
 112.8379061  54.7663967  12.0471301 109.3025086  63.3334401  17.7065320
 110.2228096  63.5113000  17.9005366 109.2674669  62.3890447  17.5545019
  98.5207251  58.5272995   6.6318595  98.2010036  57.6738303   6.3392969
  97.9740679  58.7421573   7.3876562 102.2987159  61.2435436  10.3488101
 102.5173169  62.1752544  10.3676135 102.7112933  60.8843410  11.1342905
 107.1715024  56.8168642  19.7390850 107.0711751  57.7662999  19.6702941
 106.9536566  56.4886881  18.8666920  98.3895511  62.1475907   8.6011716
  97.6958983  61.7329859   8.0881671  99.1368502  62.1896443   8.0045135
 107.0346294  60.2465781  18.5555912 106.5513376  61.0466141  18.7619801
 107.1207233  60.2573726  17.6023356 100.3032254  62.0794160   6.4777731
 100.2802942  62.1781848   5.5259614 100.6132890  62.9259311   6.7994897
 102.9619632  64.1370315  10.5924345 103.9162885  64.1054258  10.5254277
 102.7632155  63.6760939  11.4074571 103.5519014  62.7071431  13.1595143
 104.3711903  63.2015510  13.1829980 103.8255821  61.7903400  13.1312711
  98.8053928  57.0409565  13.8587340  99.4512792  56.5308519  14.3474565
  98.5971079  57.7778247  14.4330765 111.3307320  64.1090413  19.3579481
 112.1998480  64.2831065  18.9966116 110.8514072  64.9284830  19.2355210
 103.1451419  54.1877182  17.9562354 104.0082881  53.8313987  18.1665679
 102.5716830  53.8491077  18.6437759 115.7032920  67.5957899  18.9492326
 115.3099865  67.0424098  19.6239970 116.5199060  67.9068477  19.3398843
 118.6200881  69.0115778  16.5412582 119.3610594  69.6122931  16.4617045
 118.8518804  68.2693416  15.9830625 113.6480907  71.3859588  15.8896989
 114.2752946  71.0036666  16.5034513 112.7908826  71.1673790  16.2552681
 116.8848965  70.7077494  17.5510908 116.9337120  71.5839617  17.1688678
 117.4271479  70.1654887  16.9782552 118.0108779  72.1460559  19.7390850
 117.9105505  73.0954916  19.6702941 117.7930321  71.8178798  18.8666920
 109.6447682  72.3701483  13.8587340 110.2906546  71.8600437  14.3474565
 109.4364834  73.1070165  14.4330765 113.9845173  69.5169100  17.9562354
 114.8476635  69.1605905  18.1665679 113.4110584  69.1782995  18.6437759
   3.7541891  76.6452922  86.2651408   3.0005599  76.0760320  86.1095413
   3.8889432  76.6115587  87.2122043   4.1648306  76.8028532  88.9971653
   4.8951694  76.5413820  89.5579356   3.5555251  76.0657254  89.0373721
   2.2463603  74.9436395  89.5946104   1.5196766  74.8092360  88.9862596
   1.8310890  75.2513223  90.4002822   2.1712471  74.4714448  85.7222957
   1.6112028  74.5407637  86.4954519   1.5655974  74.2955432  85.0022453
   3.7568489  91.1470962  88.4152912   4.3946899  91.0277709  87.7116253
   3.6389332  92.0951806  88.4740865   2.0044570  96.6204834  79.6525793
   1.3532549  97.2058914  79.2659807   2.7988932  97.1511029  79.7120830
   3.3109757  88.8722416  85.4906120   4.0972847  88.4541839  85.1396538
   3.5748462  89.7768508  85.6587769   3.4819835  94.3095266  80.1894777
   2.8465668  94.3829892  80.9015682   3.1517241  94.8988865  79.5113857
   8.7118185  88.8097649  86.3939099   9.4443357  88.2396866  86.6276928
   7.9557540  88.4219249  86.8345605   6.2343605  82.5219223  90.8533708
   5.9026930  83.3914634  90.6294923   5.6389218  82.2055507  91.5327738
   2.7275124  94.7231769  90.2529620   2.4275848  95.6256808  90.1445428
   2.3826184  94.4563952  91.1050773   6.1272268  87.2414309  87.9327058
   5.2189146  87.1729717  87.6385819   6.0759864  87.7186254  88.7608883
   7.9933915  85.4430747  89.7104932   7.3508295  85.7363281  89.0644726
   7.4888843  85.3283668  90.5158128   5.6474078  89.1893921  80.3990791
   6.5591934  89.4221307  80.2238488   5.1383725  89.7730965  79.8365869
   4.2543661  94.1719739  87.7904372   3.6252523  94.3365453  87.0880440
   3.8669323  94.5861349  88.5615336   8.1332893  95.1074177  85.1448736
   7.4483931  95.4873078  84.5945769   8.2176742  95.7169504  85.8780684
   3.4345361  86.2095524  93.0666814   3.1906293  86.9637584  92.5301090
   3.7105292  86.5880871  93.9014061   5.3883824  92.7534136  91.7444080
   5.6000719  93.3965896  91.0678461   5.3413572  91.9196453  91.2766010
   2.9910053  85.3651957  88.6480652   2.1294532  85.6633210  88.9397389
   3.0172488  85.5822356  87.7161684   6.5029652  95.6306091  89.9166437
   7.3247096  95.2286279  89.6349119   6.4992055  95.5274326  90.8682553
  14.5935645  91.9744840  86.2651408  13.8399354  91.4052238  86.1095413
  14.7283186  91.9407504  87.2122043   3.3326737  80.3688804  90.4705021
   2.9891006  81.2590446  90.3944132   3.7005699  80.1790462  89.6074606
   3.2977019  90.3597415  78.9777456   2.7823643  91.1302020  79.2165844
   3.0254328  89.6862551  79.6010518   2.4123277  82.7393459  88.4354254
   1.9088073  82.7023594  87.6222060   2.7053884  83.6486202  88.4950911
   8.2711294  93.1129770  80.9130630   7.4940736  92.7740929  80.4685792
   8.9502775  93.1182393  80.2385595   3.0863323  88.2324507  80.8037238
   2.7813458  88.5470656  81.6547381   4.0393765  88.3105927  80.8464571
   1.5309754  94.3914731  82.4530191   1.0031116  93.6567490  82.1403429
   1.0297257  95.1689407  82.2070160   6.5102601  92.5863751  87.5697238
   5.8526275  93.2763012  87.6577366   7.3143000  92.9760183  87.9131224
   5.3208059  90.9408124  85.6201180   5.8339941  91.5738116  86.1222889
   5.9709283  90.3409319  85.2544540   2.5830434 100.9192448  78.3761851
   1.9092132 101.2224145  78.9846809   2.9696256 101.7221528  78.0267308
   1.7988890  88.4157579  87.8659520   0.8811452  88.6372526  87.7081208
   2.2149034  88.4903890  87.0071227   2.5823938  89.8148995  82.9962200
   3.3295757  90.3270392  82.6869322   2.8515527  89.4933048  83.8566594
   6.0869856  95.9214125  83.7480322   5.6332183  95.0805035  83.8045513
   5.4563822  96.5575524  84.0855102   5.0302775  86.8506111  84.9780990
   4.2925532  86.3383497  85.3091232   5.2829549  86.4106493  84.1664267
   4.5302795  97.7590622  84.6830140   4.8225769  98.3195679  83.9642506
   5.0401415  98.0519183  85.4383299   5.1314402  79.6282363  85.5722759
   5.4373279  78.7679727  85.2848674   5.8567007  80.2199983  85.3721753
   2.9402054  89.0055041  92.6704223   3.2951441  89.2326514  93.5298688
   3.5874185  89.3373417  92.0481478   8.6699791  92.1273476  83.3753552
   8.5317689  92.3175072  82.4474741   8.3136010  92.8892859  83.8321603
   8.6969170  94.1950003  88.3864823   9.1305677  94.1025293  89.2347877
   9.4100751  94.1707504  87.7484839   9.5584720  94.2373704  90.9197709
   9.7520610  95.1419515  91.1656984   9.4585338  93.7781123  91.7536294
   1.2121031  84.1231595  93.4188036   0.5648946  84.8221544  93.3252512
   1.9822046  84.5567739  93.7864284   1.3885165  91.9612360  91.4784856
   2.3177225  92.1123519  91.3053823   0.9676195  92.0496380  90.6233502
   1.7378712  95.3644627  86.6372231   1.4028544  95.3245397  87.5329881
   1.2382658  94.6989343  86.1642641   4.6737904  92.7100661  76.9109291
   4.0567074  91.9847489  76.8142343   4.2054392  93.4710021  76.5676365
   6.3309442  95.3839153  92.8029051   5.4436221  95.0465075  92.9255450
   6.9007994  94.6522185  93.0397816   2.9597026  85.0907005  85.9227321
   3.4565725  84.3376967  85.6028391   2.1884007  85.1271322  85.3570530
  10.8126783  90.7947371  87.5645612  10.8016659  91.6772086  87.1939546
   9.9444162  90.4418922  87.3700150   4.0426806  93.8478692  83.4965744
   3.1083085  93.9680155  83.3270449   4.2203475  92.9451159  83.2325754
   7.4299358  89.6896012  84.0315778   7.8959810  90.5224003  83.9576081
   7.8806858  89.2240993  84.7361037   5.4975589  96.0339833  81.0301931
   5.7735433  95.9196428  81.9395805   4.6280087  95.6357318  80.9914104
   5.4016020  82.0576599  88.0706680   4.4879100  82.2880825  88.2388887
   5.8309122  82.1415043  88.9220712   5.1722479  90.2466491  90.5706574
   4.5193929  90.4942398  89.9159027   5.5502859  89.4330629  90.2369051
   2.1329653 100.2826184  84.6734744   2.3152047  99.4647840  85.1362496
   2.9562639 100.4993876  84.2359634   2.4671818  99.2094369  81.9349793
   2.9959585  98.6986823  81.3219955   2.7300038  98.8936899  82.7995326
   3.1001222 100.2435205  88.2793909   2.9752361  99.4424944  87.7704855
   3.7580313 100.7381398  87.7907879   5.1636130  98.0444225  89.9073459
   4.2166466  97.9249576  89.8351786   5.5118904  97.1566723  89.9899721
   2.1682564  97.8396941  86.1077811   2.0207526  96.9113648  86.2885381
   2.9936057  97.8617032  85.6234887   5.7716686  98.6625500  87.1942684
   6.6963233  98.4568361  87.0567135   5.6031989  98.4141901  88.1032026
   2.1644078  85.6934779  81.1009929   2.3807692  86.5759416  80.7998757
   1.6838145  85.3020992  80.3715571   5.5612002  99.1811167  82.5504776
   5.7348879  98.6157590  81.7978628   6.0540893  99.9812062  82.3684266
   1.0367769  82.2092331  86.1315853   1.0589465  82.2731664  85.1767832
   1.4535828  81.3696839  86.3256359  11.4151393  91.9447590  84.1695075
  11.8582539  91.1954915  83.7714199  10.5377903  91.9357726  83.7868807
   6.5487174  98.4977932  79.6501674   7.2438079  99.1184624  79.8688989
   6.8910324  97.6473283  79.9254052   8.4478597  95.9477637  81.1789005
   8.9729921  96.2864910  80.4538325   8.3600950  95.0124652  80.9952139
   8.2570378  93.4303007  93.7972931   8.3068383  93.2653015  94.7388454
   8.1484302  92.5630266  93.4070812   5.5474141  89.4133935  95.1132238
   6.4484004  89.2740400  94.8216236   5.6222115  89.5788390  96.0530415
   9.7588575  95.8499949  94.0414953   9.4673384  96.2129929  94.8778414
   9.1460707  95.1366957  93.8628285  10.9584258  93.4152828  86.5617523
  11.7931149  93.8542632  86.7255083  11.0943386  92.9391482  85.7425769
   8.0075764  90.9732563  92.5095011   8.4829885  91.1660210  91.7013862
   7.0841329  91.0291749  92.2638394   2.5855980  83.0080407  91.4750845
   3.1037924  83.7441434  91.1497333   2.2311113  83.3144400  92.3097604
   2.8368574  79.4280689  86.9951741   3.1170328  78.7603878  87.6212168
   3.6219181  79.6209785  86.4826405   6.7077433  87.8498323  90.7423316
   7.6594855  87.9496421  90.7635540   6.5380883  87.0576592  91.2521401
   4.7291812  84.9353907  90.9282717   4.1341744  85.2158919  90.2329206
   4.4441509  85.4247807  91.6999458   3.8599303  98.8876833  79.6885350
   4.7929976  98.8222395  79.8918225   3.7722515  99.7233100  79.2299882
   6.4887319  98.2042704  76.6489297   6.4100951  97.8702567  77.5425055
   7.3096986  98.6964472  76.6480770   9.1865510  91.0704443  89.8565616
   9.1541830  90.1320444  90.0425300   9.7966134  91.1488480  89.1231441
   1.0248841  89.9400496  75.8992820   1.9707946  89.8106704  75.9681238
   0.6463086  89.2015158  76.3762248   9.3359999  87.8615486  89.9023899
   8.8199047  87.0773943  89.7153828  10.2199947  87.5334203  90.0670419
   6.9970726  81.6056502  85.8619712   6.7995547  81.2971590  86.7463044
   7.6070431  82.3318141  85.9917642  15.0042060  92.1320450  88.9971653
  15.7345449  91.8705738  89.5579356  14.3949006  91.3949172  89.0373721
  13.0857357  90.2728312  89.5946104  12.3590521  90.1384277  88.9862596
  12.6704644  90.5805141  90.4002822   2.7544372  81.4865409  83.6116243
   3.3075411  81.9060862  84.2706266   2.9914459  80.5601157  83.6539199
   6.1323179  83.5965934  83.1194907   5.5521849  84.2550738  82.7372960
   5.8659112  82.7743279  82.7082325   4.5826746  82.9970992  85.3216228
   5.0826524  83.1087526  84.5130547   5.2262354  82.6932045  85.9617036
   4.9148057  85.7566024  82.1751256   4.0273913  86.0415675  81.9571450
   5.3302047  85.5959788  81.3278533   8.2662594  85.7812545  85.8905595
   9.0422984  86.2708998  86.1630212   7.5410728  86.2070600  86.3477464
  10.7035152  86.4940165  86.9479536  11.2979643  86.2535901  86.2372844
  10.7761736  85.7747295  87.5753072   4.0591271  95.5210699  76.2699276
   4.7627121  95.7260702  76.8856931   3.3353920  96.0887461  76.5348359
   4.8889081  91.2720560  82.3901546   4.8324283  91.7289112  81.5509178
   5.4417424  90.5111245  82.2124389   8.6993887  87.0610292  83.2151665
   8.4430821  86.6606928  84.0459873   8.0746755  87.7754086  83.0901804
  13.0106225  89.8006365  85.7222957  12.4505783  89.8699555  86.4954519
  12.4049728  89.6247350  85.0022453   5.9677968  95.9593228  78.3197736
   6.8023572  95.5274427  78.1375211   5.8062311  95.7875242  79.2474630
   5.6223861  92.4625342  79.6854075   5.5672664  92.2969613  78.7442519
   4.9969916  93.1701374  79.8416265   2.7472105  78.5576227  83.5185330
   1.9804501  78.0034714  83.6642013   3.1582810  78.6298096  84.3799482
  14.5962243 106.4762879  88.4152912  15.2340653 106.3569627  87.7116253
  14.4783086 107.4243723  88.4740865  11.4051950 106.4290307  88.3514437
  11.0670461 106.3131372  87.4634972  12.2741718 106.0281473  88.3315443
   9.1060229 105.1978555  77.6831377   9.3585750 104.6760076  76.9214840
   8.1684788 105.0344700  77.7858061  14.1503512 104.2014333  85.4906120
  14.9366601 103.7833756  85.1396538  14.4142216 105.1060425  85.6587769
  19.5511939 104.1389566  86.3939099  20.2837111 103.5688783  86.6276928
  18.7951295 103.7511167  86.8345605  11.1688059 106.5616808  83.5902441
  10.8046266 106.0347429  84.3015363  12.0255175 106.1715277  83.4168927
  17.0737359  97.8511141  90.8533708  16.7420684  98.7206552  90.6294923
  16.4782973  97.5347425  91.5327738  10.8093546 101.5906708  78.5863790
  10.9767948 102.4586944  78.9534261  10.6190715 101.7533989  77.6625079
  16.9666023 102.5706227  87.9327058  16.0582900 102.5021635  87.6385819
  16.9153619 103.0478172  88.7608883  10.7882767 104.0464365  79.5710457
  10.6682392 104.4921416  80.4095937  10.0935355 104.3949683  79.0123995
  18.8327669 100.7722665  89.7104932  18.1902049 101.0655198  89.0644726
  18.3282598 100.6575585  90.5158128  16.4867833 104.5185838  80.3990791
  17.3985689 104.7513225  80.2238488  15.9777480 105.1022883  79.8365869
  11.1239671 103.8783073  91.4085640  11.9700866 104.3022486  91.5520289
  11.0638308 103.2216697  92.1024203  14.2739116 101.5387441  93.0666814
  14.0300048 102.2929502  92.5301090  14.5499046 101.9172789  93.9014061
  16.2277579 108.0826054  91.7444080  16.4394474 108.7257814  91.0678461
  16.1807327 107.2488370  91.2766010  13.8303808 100.6943874  88.6480652
  12.9688287 100.9925128  88.9397389  13.8566242 100.9114273  87.7161684
   9.5834263 105.3609217  81.8644023  10.2858306 105.8130261  82.3317949
   9.2514892 104.7193036  82.4923916   5.2774342 103.9837349  84.1244633
   4.4805506 104.0956043  84.6428128   5.0499935 104.3224001  83.2585523
  25.4329400 107.3036758  86.2651408  24.6793108 106.7344156  86.1095413
  25.5676941 107.2699422  87.2122043  14.1720491  95.6980722  90.4705021
  13.8284761  96.5882363  90.3944132  14.5399454  95.5082379  89.6074606
  14.1370774 105.6889333  78.9777456  13.6217397 106.4593937  79.2165844
  13.8648082 105.0154469  79.6010518  11.7217885 100.5339034  84.0362695
  10.8659481 100.1445884  83.8568333  12.1344837 100.6130994  83.1762480
  13.2517032  98.0685377  88.4354254  12.7481827  98.0315512  87.6222060
  13.5447638  98.9778120  88.4950911   9.4959918  98.1524107  87.4420436
  10.3612914  97.9566915  87.0826326   9.5637426  97.9234458  88.3689793
  19.1105048 108.4421687  80.9130630  18.3334491 108.1032847  80.4685792
  19.7896529 108.4474311  80.2385595  13.9257077 103.5616425  80.8037238
  13.6207213 103.8762574  81.6547381  14.8787519 103.6397845  80.8464571
  17.3496355 107.9155669  87.5697238  16.6920029 108.6054930  87.6577366
  18.1536754 108.3052101  87.9131224   7.1022237 100.3826315  84.8136803
   7.6765988 100.1601496  84.0809996   7.6893219 100.4515009  85.5665404
  16.1601814 106.2700041  85.6201180  16.6733696 106.9030033  86.1222889
  16.8103038 105.6701237  85.2544540   7.4291824 102.4130776  78.8332688
   6.5929136 102.7505462  79.1541963   7.2896593 102.2779755  77.8959825
   9.4044904  97.2567563  83.5411872   8.7509317  96.9416581  82.9168487
   9.3625378  96.6343304  84.2671695  12.6382645 103.7449497  87.8659520
  11.7205206 103.9664444  87.7081208  13.0542788 103.8195807  87.0071227
  13.4217692 105.1440913  82.9962200  14.1689511 105.6562310  82.6869322
  13.6909282 104.8224965  83.8566594  15.8696530 102.1798029  84.9780990
  15.1319286 101.6675415  85.3091232  16.1223303 101.7398411  84.1664267
  15.9708157  94.9574281  85.5722759  16.2767034  94.0971644  85.2848674
  16.6960762  95.5491901  85.3721753  10.2429237 105.2528074  86.0798950
  10.2977846 104.3001910  86.0041427   9.4320439 105.4087513  86.5640248
   8.1821597 103.8705134  83.8389329   7.3689462 104.1699304  84.2454521
   8.6780591 103.4760822  84.5563811  13.7795808 104.3346958  92.6704223
  14.1345196 104.5618431  93.5298688  14.4267939 104.6665335  92.0481478
  19.5093545 107.4565394  83.3753552  19.3711444 107.6466990  82.4474741
  19.1529764 108.2184777  83.8321603   7.6735671 101.4423489  89.4550564
   8.3135051 101.3012248  88.7573527   6.8413202 101.1558003  89.0789166
  19.5362925 109.5241921  88.3864823  19.9699431 109.4317210  89.2347877
  20.2494505 109.4999422  87.7484839   4.6764288 101.4123814  84.2323551
   4.9371105 102.3269147  84.1232711   5.4981460 100.9448257  84.3820163
  12.0514785  99.4523512  93.4188036  11.4042700 100.1513462  93.3252512
  12.8215800  99.8859656  93.7864284   7.3030204 102.2578003  76.0330595
   6.4259670 102.1366804  75.6692842   7.7787957 101.4664081  75.7809484
  13.7990780 100.4198923  85.9227321  14.2959480  99.6668885  85.6028391
  13.0277762 100.4563239  85.3570530  21.6520537 106.1239288  87.5645612
  21.6410414 107.0064004  87.1939546  20.7837917 105.7710839  87.3700150
  10.3825749 102.5616306  85.6499006  10.0123536 102.0087346  86.3379911
  10.8784841 101.9574439  85.0974006  18.2693112 105.0187929  84.0315778
  18.7353564 105.8515921  83.9576081  18.7200613 104.5532911  84.7361037
  16.2409775  97.3868516  88.0706680  15.3272855  97.6172743  88.2388887
  16.6702876  97.4706960  88.9220712  16.0116233 105.5758408  90.5706574
  15.3587684 105.8234316  89.9159027  16.3896613 104.7622546  90.2369051
   5.5603145 101.9275855  87.4571049   4.8389731 102.5411823  87.3178523
   6.3496401 102.4633620  87.3787695   3.7596739 101.5333956  81.5982826
   3.4309446 100.6531335  81.4157932   4.1136110 101.4781625  82.4859215
   6.8738563 101.8206926  81.9658304   7.2134635 102.3492847  81.2436912
   7.3210683 102.1587332  82.7416870   9.5682003 100.2043976  91.4161372
   9.2278824  99.4051789  91.8182051   8.8621010 100.5045687  90.8438205
  10.2198475  97.2893289  89.8688695  11.0424544  96.8153767  89.7467585
  10.4636539  98.0683773  90.3687381   8.8606710 100.3181547  80.1651596
   9.5815072 100.6962800  79.6615313   8.2372014 101.0370424  80.2686574
  13.0037833 101.0226696  81.1009929  13.2201447 101.9051334  80.7998757
  12.5231900 100.6312910  80.3715571   7.7437054 103.9812409  87.6780673
   7.5981635 104.2952713  88.5704955   7.2662258 104.5997310  87.1251572
   9.6033437 100.9714957  87.7261563   9.5895006 100.0756051  87.3893861
  10.3205865 100.9785621  88.3599849  11.4559568 101.4052298  89.7714690
  11.1977345 102.3269368  89.7699021  10.9244608 101.0082732  90.4615154
   9.0070333  99.8529338  82.9949133   9.1286244  98.9245984  83.1940020
   8.7172375  99.8668024  82.0827448  11.8761523  97.5384248  86.1315853
  11.8983220  97.6023581  85.1767832  12.2929582  96.6988757  86.3256359
  22.2545147 107.2739508  84.1695075  22.6976293 106.5246833  83.7714199
  21.3771658 107.2649644  83.7868807  19.0964133 108.7594925  93.7972931
  19.1462138 108.5944932  94.7388454  18.9878056 107.8922184  93.4070812
  16.3867895 104.7425853  95.1132238  17.2877758 104.6032318  94.8216236
  16.4615870 104.9080308  96.0530415  21.7978012 108.7444746  86.5617523
  22.6324904 109.1834550  86.7255083  21.9337141 108.2683399  85.7425769
  18.8469518 106.3024481  92.5095011  19.3223640 106.4952127  91.7013862
  17.9235083 106.3583667  92.2638394  13.4249735  98.3372324  91.4750845
  13.9431678  99.0733351  91.1497333  13.0704867  98.6436318  92.3097604
   5.0048672 103.1977006  79.5912250   4.3117917 103.2721361  78.9352286
   4.7600424 102.4337349  80.1133767  13.6762329  94.7572607  86.9951741
  13.9564082  94.0895796  87.6212168  14.4612936  94.9501703  86.4826405
  17.5471187 103.1790241  90.7423316  18.4988610 103.2788339  90.7635540
  17.3774637 102.3868510  91.2521401  15.5685567 100.2645824  90.9282717
  14.9735499 100.5450837  90.2329206  15.2835263 100.7539725  91.6999458
  20.0259265 106.3996361  89.8565616  19.9935585 105.4612361  90.0425300
  20.6359888 106.4780397  89.1231441  11.8642596 105.2692414  75.8992820
  12.8101700 105.1398622  75.9681238  11.4856841 104.5307076  76.3762248
  20.1753753 103.1907404  89.9023899  19.6592802 102.4065861  89.7153828
  21.0593702 102.8626121  90.0670419  17.8364480  96.9348420  85.8619712
  17.6389301  96.6263508  86.7463044  18.4464186  97.6610059  85.9917642
  25.8435815 107.4612368  88.9971653  26.5739203 107.1997656  89.5579356
  25.2342760 106.7241089  89.0373721  23.9251112 105.6020230  89.5946104
  23.1984275 105.4676195  88.9862596  23.5098399 105.9097059  90.4002822
  10.0485513 103.1942390  75.8347705   9.1416968 102.8975503  75.9110419
  10.3261494 102.8972208  74.9681991  11.6647579  97.7379280  81.9891947
  10.8548307  97.3926365  82.3647193  12.3531996  97.4286823  82.5779558
  13.5938127  96.8157327  83.6116243  14.1469165  97.2352780  84.2706266
  13.8308213  95.8893075  83.6539199   8.8184297 100.0529325  75.9759684
   9.6803461 100.3784224  76.2355502   9.0034642  99.2660821  75.4632750
  16.9716934  98.9257852  83.1194907  16.3915603  99.5842656  82.7372960
  16.7052867  98.1035196  82.7082325  15.4220500  98.3262909  85.3216228
  15.9220279  98.4379444  84.5130547  16.0656108  98.0223962  85.9617036
  15.7541812 101.0857942  82.1751256  14.8667667 101.3707593  81.9571450
  16.1695801 100.9251705  81.3278533  19.1056348 101.1104463  85.8905595
  19.8816738 101.6000916  86.1630212  18.3804482 101.5362517  86.3477464
  21.5428907 101.8232082  86.9479536  22.1373398 101.5827818  86.2372844
  21.6155490 101.1039213  87.5753072  15.7282836 106.6012478  82.3901546
  15.6718037 107.0581029  81.5509178  16.2811178 105.8403163  82.2124389
  19.5387642 102.3902210  83.2151665  19.2824576 101.9898846  84.0459873
  18.9140510 103.1046004  83.0901804  23.8499979 105.1298283  85.7222957
  23.2899537 105.1991472  86.4954519  23.2443483 104.9539268  85.0022453
  16.4617615 107.7917259  79.6854075  16.4066419 107.6261531  78.7442519
  15.8363670 108.4993292  79.8416265   9.7713740  97.2925368  79.2639393
   9.7592410  98.2367208  79.4207664  10.6637162  97.1095514  78.9698855
  13.5865860  93.8868145  83.5185330  12.8198256  93.3326632  83.6642013
  13.9976565  93.9590014  84.3799482  26.8101911 110.2866199  85.5722759
  27.1160788 109.4263562  85.2848674  27.5354516 110.8783819  85.3721753
  24.5156083 110.0864525  86.9951741  24.7957837 109.4187714  87.6212168
  25.3006690 110.2793620  86.4826405  28.6758235 112.2640337  85.8619712
  28.4783056 111.9555426  86.7463044  29.2857940 112.9901976  85.9917642
  24.4259614 109.2160063  83.5185330  23.6592010 108.6618549  83.6642013
  24.8370319 109.2881931  84.3799482   3.7541892  53.6515045  72.9896715
   3.0005600  53.0822443  72.8340719   3.8889433  53.6177709  73.9367350
   4.1648307  53.8090655  75.7216959   4.8951695  53.5475943  76.2824663
   3.5555252  53.0719377  75.7619027   2.2463604  51.9498517  76.3191411
   1.5196768  51.8154482  75.7107902   1.8310891  52.2575346  77.1248129
   2.1712472  51.4776570  72.4468263   1.6112030  51.5469760  73.2199825
   1.5655975  51.3017555  71.7267760   3.7568490  68.1533084  75.1398219
   4.3946900  68.0339832  74.4361559   3.6389333  69.1013928  75.1986171
   1.0477979  69.2595364  81.0345949   1.0366620  68.8648162  80.1626453
   1.2098619  68.5261437  81.6279721   2.0044571  73.6266957  66.3771100
   1.3532551  74.2121037  65.9905113   2.7988934  74.1573151  66.4366137
   3.3109759  65.8784538  72.2151427   4.0972848  65.4603961  71.8641844
   3.5748463  66.7830630  72.3833076   3.4819836  71.3157388  66.9140084
   2.8465669  71.3892015  67.6260989   3.1517242  71.9050987  66.2359163
   8.7118186  65.8159771  73.1184406   9.4443358  65.2458988  73.3522235
   7.9557542  65.4281372  73.5590911   6.2343606  59.5281345  77.5779014
   5.9026931  60.3976756  77.3540229   5.6389220  59.2117629  78.2573045
   2.7275126  71.7293891  76.9774927   2.4275849  72.6318930  76.8690734
   2.3826185  71.4626075  77.8296080   6.1272270  64.2476432  74.6572364
   5.2189147  64.1791840  74.3631125   6.0759865  64.7248377  75.4854190
   7.9933916  62.4492870  76.4350238   7.3508296  62.7425403  75.7890033
   7.4888844  62.3345790  77.2403435   5.6474080  66.1956043  67.1236097
   6.5591936  66.4283430  66.9483795   5.1383727  66.7793087  66.5611176
   3.9314847  70.6180671  80.7597390   4.3398203  70.1763082  80.0152022
   3.2092109  70.0433299  81.0131583   4.2543662  71.1781862  74.5149679
   3.6252524  71.3427576  73.8125747   3.8669324  71.5923471  75.2860643
   8.1332894  72.1136300  71.8694043   7.4483932  72.4935201  71.3191076
   8.2176743  72.7231626  72.6025990   3.4345363  63.2157646  79.7912121
   3.1906294  63.9699707  79.2546396   3.7105293  63.5942994  80.6259368
   5.3883825  69.7596259  78.4689386   5.6000721  70.4028018  77.7923767
   5.3413574  68.9258575  78.0011316   2.9910054  62.3714079  75.3725958
   2.1294533  62.6695333  75.6642696   3.0172489  62.5884478  74.4406991
   6.5029653  72.6368214  76.6411744   7.3247097  72.2348401  76.3594425
   6.4992056  72.5336448  77.5927859  14.5935646  68.9806962  72.9896715
  13.8399355  68.4114361  72.8340719  14.7283188  68.9469627  73.9367350
   1.6102751  74.4743931  82.7951776   1.1666605  73.6880310  82.4772681
   2.2719964  74.6623082  82.1295667   3.7083989  74.7546731  80.8233178
   3.6902464  75.5755612  80.3313447   4.6303909  74.6300806  81.0483319
   3.3326738  57.3750927  77.1950328   2.9891007  58.2652568  77.1189438
   3.7005701  57.1852584  76.3319913   3.2977021  67.3659538  65.7022763
   2.7823644  68.1364142  65.9411150   3.0254329  66.6924674  66.3255824
   2.4123278  59.7455582  75.1599561   1.9088074  59.7085717  74.3467366
   2.7053885  60.6548325  75.2196218   8.2711295  70.1191892  67.6375936
   7.4940738  69.7803052  67.1931099   8.9502776  70.1244516  66.9630902
   3.0863324  65.2386630  67.5282544   2.7813459  65.5532779  68.3792687
   4.0393766  65.3168050  67.5709877   1.5309756  71.3976853  69.1775498
   1.0031117  70.6629613  68.8648736   1.0297258  72.1751530  68.9315466
   6.5102602  69.5925874  74.2942544   5.8526276  70.2825135  74.3822673
   7.3143001  69.9822306  74.6376531   5.3208061  67.9470246  72.3446486
   5.8339942  68.5800238  72.8468196   5.9709284  67.3471442  71.9789846
   2.5830435  77.9254571  65.1007157   1.9092134  78.2286267  65.7092115
   2.9696257  78.7283651  64.7512614   1.7988891  65.4219702  74.5904827
   0.8811453  65.6434649  74.4326515   2.2149035  65.4966012  73.7316534
   2.5823939  66.8211118  69.7207507   3.3295758  67.3332515  69.4114629
   2.8515529  66.4995170  70.5811901   6.0869857  72.9276248  70.4725629
   5.6332184  72.0867158  70.5290819   5.4563823  73.5637646  70.8100409
   5.0302776  63.8568234  71.7026296   4.2925533  63.3445620  72.0336539
   5.2829550  63.4168615  70.8909573   4.5302796  74.7652744  71.4075447
   4.8225770  75.3257802  70.6887813   5.0401417  75.0581305  72.1628606
   5.1314404  56.6344486  72.2968066   5.4373280  55.7741849  72.0093981
   5.8567008  57.2262106  72.0967059   2.9402055  66.0117163  79.3949529
   3.2951443  66.2388636  80.2543995   3.5874186  66.3435540  78.7726785
   8.6699792  69.1335599  70.0998858   8.5317691  69.3237195  69.1720048
   8.3136011  69.8954982  70.5566910   8.6969172  71.2012126  75.1110130
   9.1305678  71.1087415  75.9593184   9.4100752  71.1769626  74.4730146
   2.4297066  74.8014220  76.6443231   2.4834089  75.3705156  77.4120946
   1.5611848  74.9716105  76.2797268   9.5584721  71.2435827  77.6443015
   9.7520611  72.1481637  77.8902290   9.4585339  70.7843246  78.4781600
   1.2121032  61.1293717  80.1433343   0.5648947  61.8283667  80.0497819
   1.9822047  61.5629861  80.5109591   4.6199830  71.3942569  83.2183896
   4.4685336  71.1653121  82.3013980   4.6104509  72.3513171  83.2315241
   1.3885166  68.9674482  78.2030162   2.3177226  69.1185642  78.0299130
   0.9676196  69.0558503  77.3478809   1.7378713  72.3706749  73.3617538
   1.4028546  72.3307519  74.2575188   1.2382659  71.7051465  72.8887948
   4.6737905  69.7162784  63.6354597   4.0567075  68.9909612  63.5387650
   4.2054393  70.4772144  63.2921672   6.3292036  74.4261692  81.2960378
   6.2704583  73.7420912  80.6290961   6.7311555  75.1680682  80.8441004
   6.3309444  72.3901276  79.5274357   5.4436222  72.0527198  79.6500756
   6.9007995  71.6584307  79.7643123   2.9597027  62.0969128  72.6472628
   3.4565726  61.3439090  72.3273698   2.1884008  62.1333444  72.0815837
  10.8126784  67.8009493  74.2890919  10.8016660  68.6834209  73.9184852
   9.9444164  67.4481044  74.0945456   2.3209281  76.9489562  78.6493759
   3.0337253  77.5837027  78.5769661   1.8299309  77.0453428  77.8333761
   4.0426808  70.8540815  70.2211051   3.1083086  70.9742277  70.0515755
   4.2203476  69.9513282  69.9571061   7.4299359  66.6958134  70.7561085
   7.8959811  67.5286126  70.6821388   7.8806859  66.2303116  71.4606344
   5.4975590  73.0401956  67.7547237   5.7735434  72.9258550  68.6641111
   4.6280089  72.6419440  67.7159410   5.4016022  59.0638721  74.7951986
   4.4879101  59.2942948  74.9634193   5.8309123  59.1477165  75.6466019
   5.1722480  67.2528613  77.2951880   4.5193930  67.5004521  76.6404333
   5.5502860  66.4392751  76.9614358   2.1329654  77.2888306  71.3980051
   2.3152049  76.4709962  71.8607803   2.9562640  77.5055999  70.9604941
   2.4671819  76.2156492  68.6595099   2.9959586  75.7048946  68.0465261
   2.7300039  75.8999022  69.5240632   1.2210053  67.9948424  83.7817918
   0.5450690  67.8942554  84.4520293   2.0437687  67.8387638  84.2453915
   4.8143710  74.1276609  83.8724188   5.3583614  74.7406567  83.3779143
   4.2330555  74.6856188  84.3891201   3.1001223  77.2497327  75.0039216
   2.9752363  76.4487067  74.4950161   3.7580314  77.7443521  74.5153186
   5.1636132  75.0506347  76.6318766   4.2166467  74.9311698  76.5597093
   5.5118905  74.1628845  76.7145027   2.1682565  74.8459064  72.8323118
   2.0207527  73.9175771  73.0130688   2.9936058  74.8679154  72.3480193
   5.7716687  75.6687622  73.9187991   6.6963234  75.4630484  73.7812442
   5.6031990  75.4204023  74.8277332   2.1644079  62.6996901  67.8255235
   2.3807694  63.5821539  67.5244063   1.6838146  62.3083115  67.0960877
   5.5612003  76.1873290  69.2750082   5.7348881  75.6219712  68.5223935
   6.0540894  76.9874185  69.0929572   1.0367770  59.2154453  72.8561159
   1.0589467  59.2793786  71.9013139   1.4535829  58.3758962  73.0501666
  11.4151394  68.9509713  70.8940382  11.8582540  68.2017038  70.4959505
  10.5377904  68.9419849  70.5114114   6.5487176  75.5040054  66.3746981
   7.2438080  76.1246747  66.5934295   6.8910326  74.6535405  66.6499358
   8.4478599  72.9539760  67.9034311   8.9729923  73.2927032  67.1783631
   8.3600951  72.0186775  67.7197446   8.1372505  73.5872663  83.2085509
   7.3468048  73.5696802  82.6690009   7.9005859  74.1260957  83.9634546
   8.2570380  70.4365130  80.5218238   8.3068385  70.2715137  81.4633761
   8.1484303  69.5692389  80.1316119   5.5474142  66.4196058  81.8377545
   6.4484005  66.2802523  81.5461542   5.6222117  66.5850513  82.7775722
   9.7588577  72.8562071  80.7660259   9.4673385  73.2192052  81.6023720
   9.1460708  72.1429079  80.5873591  10.9584259  70.4214951  73.2862830
  11.7931150  70.8604755  73.4500390  11.0943388  69.9453604  72.4671075
   8.0075765  67.9794686  79.2340317   8.4829886  68.1722332  78.4259169
   7.0841330  68.0353872  78.9883701   2.5855981  60.0142529  78.1996151
   3.1037925  60.7503556  77.8742640   2.2311114  60.3206523  79.0342910
   2.8368575  56.4342812  73.7197048   3.1170329  55.7666001  74.3457474
   3.6219182  56.6271908  73.2071712   6.7077434  64.8560446  77.4668623
   7.6594857  64.9558544  77.4880847   6.5380884  64.0638714  77.9766707
   4.7291813  61.9416029  77.6528024   4.1341745  62.2221042  76.9574512
   4.4441510  62.4309930  78.4244765   3.8599304  75.8938956  66.4130656
   4.7929977  75.8284518  66.6163532   3.7722517  76.7295223  65.9545189
   6.4887320  75.2104826  63.3734604   6.4100952  74.8764690  64.2670362
   7.3096987  75.7026594  63.3726076   9.1865512  68.0766566  76.5810923
   9.1541832  67.1382566  76.7670606   9.7966135  68.1550602  75.8476747
   1.0248842  66.9462619  62.6238127   1.9707947  66.8168827  62.6926545
   0.6463087  66.2077280  63.1007555   9.3360000  64.8677609  76.6269206
   8.8199049  64.0836066  76.4399135  10.2199949  64.5396326  76.7915725
   6.9970727  58.6118625  72.5865018   6.7995548  58.3033713  73.4708350
   7.6070433  59.3380263  72.7162948  15.0042061  69.1382572  75.7216959
  15.7345450  68.8767861  76.2824663  14.3949007  68.4011294  75.7619027
  13.0857359  67.2790435  76.3191411  12.3590522  67.1446400  75.7107902
  12.6704645  67.5867264  77.1248129   0.9087535  70.9980365  84.0838784
   1.8290544  71.1758964  84.2778830   0.8737118  70.0536410  83.9318483
   2.7544374  58.4927531  70.3361550   3.3075412  58.9122985  70.9951573
   2.9914460  57.5663280  70.3784506   6.1323181  60.6028057  69.8440214
   5.5521850  61.2612861  69.4618266   5.8659113  59.7805401  69.4327632
   4.5826747  60.0033114  72.0461534   5.0826525  60.1149649  71.2375853
   5.2262355  59.6994167  72.6862343   4.9148059  62.7628147  68.8996562
   4.0273914  63.0477798  68.6816757   5.3302048  62.6021910  68.0523839
   8.2662595  62.7874668  72.6150902   9.0422985  63.2771120  72.8875518
   7.5410729  63.2132722  73.0722771  10.7035154  63.5002287  73.6724842
  11.2979644  63.2598023  72.9618150  10.7761737  62.7809418  74.2998378
   4.0591272  72.5272822  62.9944582   4.7627122  72.7322824  63.6102238
   3.3353921  73.0949584  63.2593666   4.8889082  68.2782683  69.1146852
   4.8324284  68.7351234  68.2754485   5.4417425  67.5173368  68.9369695
   8.6993888  64.0672415  69.9396972   8.4430823  63.6669050  70.7705180
   8.0746756  64.7816209  69.8147111  13.0106226  66.8068488  72.4468263
  12.4505784  66.8761677  73.2199825  12.4049730  66.6309473  71.7267760
   5.9677970  72.9655351  65.0443042   6.8023574  72.5336549  64.8620517
   5.8062313  72.7937365  65.9719937   5.6223862  69.4687464  66.4099382
   5.5672666  69.3031736  65.4687826   4.9969917  70.1763497  66.5661571
   2.9369769  71.7736376  85.7352944   3.8060929  71.9477028  85.3739579
   2.4576520  72.5930793  85.6128674   2.7472107  55.5638350  70.2430637
   1.9804503  55.0096837  70.3887319   3.1582812  55.6360219  71.1044788
  14.5962245  83.4825002  75.1398219  15.2340655  83.3631749  74.4361559
  14.4783088  84.4305846  75.1986171  11.4051951  83.4352430  75.0759744
  11.0670463  83.3193495  74.1880279  12.2741719  83.0343595  75.0560750
   7.2638767  85.2887907  71.0656635   6.7003632  85.1977843  70.2972922
   7.1491162  84.4687811  71.5459127  11.8871734  84.5887282  81.0345949
  11.8760375  84.1940080  80.1626453  12.0492373  83.8553354  81.6279721
   4.8103199  86.7839098  73.9040855   5.6024491  86.4429923  73.4887154
   5.0499849  86.8934073  74.8243009  12.8438325  88.9558874  66.3771100
  12.1926305  89.5412955  65.9905113  13.6382688  89.4865069  66.4366137
   6.7693953  86.0448011  66.7758234   7.5424829  85.4976998  66.6371110
   7.1219351  86.9092261  66.9872695   8.6078995  87.3724394  79.9825133
   8.3168861  88.2770024  79.8671800   9.2435979  87.4140921  80.6969203
   9.5335202  84.7501242  76.5726493  10.1298774  84.5257265  75.8583456
   9.5910174  84.0085988  77.1751941   9.1060230  82.2040677  64.4076684
   9.3585751  81.6822199  63.6460147   8.1684789  82.0406823  64.5103368
  14.1503513  81.2076456  72.2151427  14.9366602  80.7895879  71.8641844
  14.4142218  82.1122548  72.3833076  14.3213591  86.6449306  66.9140084
  13.6859424  86.7183933  67.6260989  13.9910997  87.2342905  66.2359163
  19.5511940  81.1451689  73.1184406  20.2837112  80.5750906  73.3522235
  18.7951296  80.7573289  73.5590911   8.8256519  84.1068783  66.6101059
   8.7092777  83.4313687  67.2782143   8.9358779  83.6201157  65.7933212
  11.1688060  83.5678931  70.3147748  10.8046267  83.0409552  71.0260670
  12.0255176  83.1777400  70.1414234  17.0737361  74.8573263  77.5779014
  16.7420685  75.7268674  77.3540229  16.4782974  74.5409547  78.2573045
  10.8093547  78.5968830  65.3109097  10.9767949  79.4649067  65.6779568
  10.6190716  78.7596112  64.3870386  13.5668880  87.0585809  76.9774927
  13.2669603  87.9610848  76.8690734  13.2219940  86.7917992  77.8296080
   7.0181362  83.5099606  73.0111631   6.0931858  83.3775820  73.2189323
   7.2665775  84.2893825  73.5081574  16.9666024  79.5768349  74.6572364
  16.0582901  79.5083758  74.3631125  16.9153620  80.0540294  75.4854190
  10.7882768  81.0526488  66.2955763  10.6682393  81.4983538  67.1341244
  10.0935356  81.4011805  65.7369302   4.3790173  83.1532880  73.8455420
   4.5082554  83.4067358  74.7594832   3.6987624  83.7460588  73.5260076
   8.5489660  93.8230129  69.9445895   8.4713690  94.7737955  70.0234375
   7.9451304  93.4776002  70.6020821  11.0406890  80.9957995  82.6007262
  10.2640224  81.5551915  82.5910126  11.6797453  81.4814778  83.1222132
  18.8327670  77.7784788  76.4350238  18.1902051  78.0717321  75.7890033
  18.3282599  77.6637708  77.2403435  16.4867834  81.5247961  67.1236097
  17.3985690  81.7575348  66.9483795  15.9777481  82.1085005  66.5611176
   9.2953262  83.8043448  82.1625229  10.0367946  84.3428492  81.8860052
   8.5890248  84.4309737  82.3196780  14.7708602  85.9472589  80.7597390
  15.1791958  85.5054999  80.0152022  14.0485863  85.3725216  81.0131583
  11.1239672  80.8845196  78.1330947  11.9700867  81.3084609  78.2765596
  11.0638309  80.2278820  78.8269510  15.0937416  86.5073779  74.5149679
  14.4646279  86.6719493  73.8125747  14.7063078  86.9215389  75.2860643
  18.9726648  87.4428217  71.8694043  18.2877686  87.8227119  71.3191076
  19.0570498  88.0523544  72.6025990  14.2739117  78.5449564  79.7912121
  14.0300049  79.2991624  79.2546396  14.5499048  78.9234911  80.6259368
  16.2277580  85.0888176  78.4689386  16.4394475  85.7319936  77.7923767
  16.1807328  84.2550493  78.0011316  13.8303809  77.7005997  75.3725958
  12.9688288  77.9987250  75.6642696  13.8566243  77.9176396  74.4406991
  10.6465378  86.2448187  71.7799764  11.1103724  86.5235890  70.9904387
  10.3822176  85.3431632  71.5972855   7.5389459  85.7919669  74.7179527
   8.1090816  86.2206937  74.0797012   8.1297571  85.5102254  75.4163713
   9.5834264  82.3671340  68.5889329  10.2858308  82.8192383  69.0563256
   9.2514893  81.7255159  69.2169222   8.0314626  80.9583096  82.9640539
   7.4013286  81.6399377  83.1975935   7.9250714  80.8466178  82.0193677
   3.3259598  80.6254892  73.8906463   2.5358652  80.8812421  73.4146573
   3.8170846  81.4403230  73.9958503  17.3423408  87.9660132  76.6411744
  18.1640852  87.5640319  76.3594425  17.3385811  87.8628366  77.5927859
   5.2774344  80.9899472  70.8489939   4.4805507  81.1018166  71.3673435
   5.0499936  81.3286124  69.9830830  11.1080011  87.5144175  78.7972454
  11.1724444  87.9764582  79.6330626  10.3990935  86.8841540  78.9254764
   1.6097301  80.8785383  76.3221454   1.8605340  81.7632393  76.5879029
   2.1456850  80.6989984  75.5496545  25.4329401  84.3098880  72.9896715
  24.6793109  83.7406278  72.8340719  25.5676942  84.2761545  73.9367350
  10.8228029  89.1812282  68.6651434  10.6873704  90.0263818  69.0936282
  11.3637841  89.3831560  67.9017368   7.3095369  75.2603862  85.3265790
   6.9162314  74.7070061  86.0013434   8.1261509  75.5714441  85.7172307
   4.2757426  86.6987720  69.2379359   4.7881947  87.4930971  69.3884924
   4.9280139  86.0014011  69.1712961   6.0852311  89.8153477  71.3202113
   6.2618939  90.7371441  71.1323097   6.8809145  89.5011896  71.7496492
  10.2263330  76.6761741  82.9186046  10.9673043  77.2768895  82.8390509
  10.4581252  75.9339379  82.3604089   5.3704668  81.8618109  81.1964276
   5.2558183  80.9603366  81.4971375   4.5149185  82.1081805  80.8449092
  12.4496505  89.8035849  82.7951776  12.0060359  89.0172228  82.4772681
  13.1113719  89.9914999  82.1295667   7.2083626  91.3331651  77.3212455
   7.7591052  91.2048714  76.5489449   6.3695102  91.6326540  76.9707348
  14.5477743  90.0838649  80.8233178  14.5296219  90.9047530  80.3313447
  15.4697663  89.9592724  81.0483319  11.0050798  87.5982778  81.6656686
  11.5379134  86.8371067  81.4355994  10.4764879  87.3056430  82.4080841
  14.1720492  72.7042844  77.1950328  13.8284762  73.5944486  77.1189438
  14.5399455  72.5144502  76.3319913   2.2406343  85.0276375  70.0138930
   3.0781565  85.4373383  69.7972638   2.4184611  84.0875817  69.9839124
  14.1370775  82.6951455  65.7022763  13.6217399  83.4656060  65.9411150
  13.8648084  82.0216592  66.3255824  11.7217886  77.5401156  70.7608001
  10.8659483  77.1508007  70.5813640  12.1344838  77.6193117  69.9007787
  13.2517033  75.0747499  75.1599561  12.7481828  75.0377635  74.3467366
  13.5447640  75.9840242  75.2196218   9.4959919  75.1586229  74.1665743
  10.3612916  74.9629038  73.8071632   9.5637428  74.9296581  75.0935100
  19.1105049  85.4483810  67.6375936  18.3334492  85.1094970  67.1931099
  19.7896530  85.4536433  66.9630902  13.9257078  80.5678548  67.5282544
  13.6207214  80.8824697  68.3792687  14.8787521  80.6459967  67.5709877
  12.3703510  86.7268771  69.1775498  11.8424872  85.9921530  68.8648736
  11.8691013  87.5043447  68.9315466  17.3496356  84.9217791  74.2942544
  16.6920031  85.6117053  74.3822673  18.1536755  85.3114223  74.6376531
   7.1022238  77.3888437  71.5382110   7.6765990  77.1663619  70.8055303
   7.6893220  77.4577132  72.2910711  16.1601815  83.2762164  72.3446486
  16.6733697  83.9092156  72.8468196  16.8103039  82.6763360  71.9789846
   7.4291825  79.4192898  65.5577995   6.5929137  79.7567585  65.8787270
   7.2896595  79.2841878  64.6205132   9.4044906  74.2629686  70.2657179
   8.7509318  73.9478703  69.6413794   9.3625380  73.6405426  70.9917002
  10.5156110  84.5448981  62.1810471   9.6083172  84.3138235  62.3801620
  11.0127142  83.7486600  62.3684453  13.4224189  93.2546488  65.1007157
  12.7485888  93.5578185  65.7092115  13.8090011  94.0575569  64.7512614
  12.6382646  80.7511620  74.5904827  11.7205207  80.9726567  74.4326515
  13.0542790  80.8257930  73.7316534  13.4217694  82.1503035  69.7207507
  14.1689513  82.6624432  69.4114629  13.6909283  81.8287088  70.5811901
  11.6944344  84.6461576  66.7034461  10.7855563  84.3620609  66.8006931
  11.7239428  85.0660655  65.8437768  16.9263611  88.2568165  70.4725629
  16.4725938  87.4159075  70.5290819  16.2957578  88.8929564  70.8100409
  15.8696531  79.1860152  71.7026296  15.1319288  78.6737538  72.0336539
  16.1223304  78.7460533  70.8909573  15.3696551  90.0944662  71.4075447
  15.6619525  90.6549719  70.6887813  15.8795171  90.3873223  72.1628606
  15.9708158  71.9636404  72.2968066  16.2767035  71.1033767  72.0093981
  16.6960763  72.5554024  72.0967059   2.2632514  82.3667090  70.6849663
   2.0656914  81.7736451  69.9600730   1.7079178  82.0619300  71.4025602
  10.2429238  82.2590197  72.8044257  10.2977848  81.3064033  72.7286733
   9.4320440  82.4149636  73.2885555  11.3920432  86.1870320  64.0422540
  10.9539862  85.4706179  63.5828177  12.1330873  86.4146434  63.4807631
   8.1821598  80.8767256  70.5634635   7.3689463  81.1761427  70.9699828
   8.6780592  80.4822945  71.2809118  10.3330176  90.8725013  72.4968900
  10.2906354  91.0985860  71.5677432  11.2492875  90.6388388  72.6454701
  13.7795809  81.3409081  79.3949529  14.1345197  81.5680554  80.2543995
  14.4267941  81.6727458  78.7726785  19.5093546  84.4627517  70.0998858
  19.3711445  84.6529113  69.1720048  19.1529765  85.2246899  70.5566910
   7.6735673  78.4485612  76.1795870   8.3135052  78.3074371  75.4818834
   6.8413203  78.1620125  75.8034472  19.5362926  86.5304044  75.1110130
  19.9699433  86.4379333  75.9593184  20.2494507  86.5061544  74.4730146
   8.4495976  87.7488042  72.2930863   9.2436575  87.2538362  72.0913438
   7.7387669  87.2205905  71.9298568  13.2690821  90.1306138  76.6443231
  13.3227843  90.6997074  77.4120946  12.4005602  90.3008023  76.2797268
   4.7578740  81.8931124  68.3690616   3.8276328  81.8315579  68.5860578
   4.8536212  81.3707077  67.5727257   4.6764289  78.4185937  70.9568857
   4.9371106  79.3331270  70.8478018   5.4981461  77.9510379  71.1065470
   6.1489214  79.8323694  78.1267682   6.8212268  79.6241056  77.4780331
   5.3219001  79.6345780  77.6872914  20.3978476  86.5727744  77.6443015
  20.5914366  87.4773555  77.8902290  20.2979094  86.1135163  78.4781600
  12.0514786  76.4585635  80.1433343  11.4042701  77.1575585  80.0497819
  12.8215802  76.8921779  80.5109591  15.4593584  86.7234487  83.2183896
  15.3079091  86.4945039  82.3013980  15.4498264  87.6805089  83.2315241
  12.2278921  84.2966400  78.2030162  13.1570981  84.4477559  78.0299130
  11.8069951  84.3850421  77.3478809  11.0267252  88.3217064  75.9728700
  10.8878338  87.9535849  76.8454638  10.2381849  88.8364704  75.8012658
  11.6215404  93.4226161  67.3154237  11.7967160  92.9514204  68.1299859
  10.9348192  94.0491927  67.5435497  12.5772468  87.6998667  73.3617538
  12.2422300  87.6599437  74.2575188  12.0776413  87.0343383  72.8887948
   6.5516712  83.1066297  78.8870119   6.4136510  82.3746536  79.4881658
   7.4621635  83.0175197  78.6054307  15.5131659  85.0454701  63.6354597
  14.8960830  84.3201529  63.5387650  15.0448148  85.8064062  63.2921672
   9.1799012  82.8186256  78.3753799   9.8898631  82.1779448  78.3340417
   9.1368320  83.0699151  79.2979979  17.1685791  89.7553610  81.2960378
  17.1098337  89.0712830  80.6290961  17.5705309  90.4972600  80.8441004
   7.8927946  79.8051474  80.1949438   7.3565303  79.3542213  80.8471034
   7.3044655  79.9397383  79.4519902   6.1876490  96.5715523  74.0894097
   6.4273088  97.2034048  74.7673115   5.3445686  96.2203564  74.3759456
   7.3030205  79.2640126  62.7575902   6.4259671  79.1428926  62.3938148
   7.7787958  78.4726204  62.5054790  17.1703198  87.7193194  79.5274357
  16.2829977  87.3819115  79.6500756  17.7401749  86.9876225  79.7643123
   3.6267067  78.9407482  77.2802433   3.5425256  78.3333151  76.5452842
   2.8049774  79.4316500  77.2811929  10.7004352  92.3794646  76.4935601
  10.6274523  93.1849617  77.0054905  10.2581745  92.5786612  75.6683622
  10.4894131  91.6166416  70.0038422   9.7061653  92.1588096  70.0976647
  11.1886876  92.1340396  70.4032663  13.7990781  77.4261045  72.6472628
  14.2959481  76.6731008  72.3273698  13.0277763  77.4625362  72.0815837
  21.6520539  83.1301411  74.2890919  21.6410415  84.0126126  73.9184852
  20.7837918  82.7772962  74.0945456  13.1603035  92.2781480  78.6493759
  13.8731007  92.9128945  78.5769661  12.6693064  92.3745346  77.8333761
  14.8820562  86.1832733  70.2211051  13.9476841  86.3034195  70.0515755
  15.0597230  85.2805199  69.9571061  10.3825750  79.5678428  72.3744312
  10.0123538  79.0149469  73.0625218  10.8784843  78.9636562  71.8219312
  18.2693113  82.0250052  70.7561085  18.7353566  82.8578044  70.6821388
  18.7200614  81.5595033  71.4606344   8.2114949  90.0275923  79.4699330
   8.9124408  90.6612406  79.6228724   7.7410064  90.3690655  78.7094969
  16.3369344  88.3693873  67.7547237  16.6129188  88.2550468  68.6641111
  15.4673843  87.9711358  67.7159410  16.2409776  74.3930639  74.7951986
  15.3272856  74.6234866  74.9634193  16.6702878  74.4769083  75.6466019
  16.0116235  82.5820531  77.2951880  15.3587685  82.8296438  76.6404333
  16.3896615  81.7684669  76.9614358  12.9723408  92.6180224  71.3980051
  13.1545803  91.8001880  71.8607803  13.7956395  92.8347916  70.9604941
  13.3065574  91.5448409  68.6595099  13.8353340  91.0340864  68.0465261
  13.5693794  91.2290939  69.5240632  12.0603808  83.3240342  83.7817918
  11.3844445  83.2234471  84.4520293  12.8831442  83.1679556  84.2453915
   3.8082667  89.5612278  76.4030433   4.3936104  88.8155966  76.5358337
   3.6107505  89.8716235  77.2867097   6.6621322  92.5963526  71.4192875
   5.9931697  93.0809653  70.9356915   6.5234192  92.8432746  72.3336254
  10.8026591  94.6307269  78.0175534  11.3544899  94.7938891  78.7824619
  11.1432784  95.2211707  77.3455558   5.7791084  76.9782419  78.6197418
   5.8432410  77.8397250  78.2074816   5.7158204  76.3656421  77.8869777
   5.2543356  79.0505552  82.2670453   5.8815395  78.6682629  82.8807977
   4.3971275  78.8319754  82.6326145  15.6537465  89.4568527  83.8724188
  16.1977369  90.0698485  83.3779143  15.0724310  90.0148105  84.3891201
   2.0308899  80.8581981  68.1988807   2.3262340  79.9492659  68.1455861
   1.1296935  80.8369720  67.8769810  13.9394978  92.5789245  75.0039216
  13.8146117  91.7778985  74.4950161  14.5974069  93.0735438  74.5153186
   5.5603146  78.9337977  74.1816356   4.8389732  79.5473945  74.0423829
   6.3496402  79.4695742  74.1033002  16.0029886  90.3798265  76.6318766
  15.0560222  90.2603616  76.5597093  16.3512659  89.4920763  76.7145027
   8.3629460  76.2692404  80.4557008   8.8863861  76.5154700  81.2183317
   8.1441793  77.1012439  80.0360145   3.7596741  78.5396078  68.3228133
   3.4309447  77.6593457  68.1403238   4.1136111  78.4843747  69.2104522
  13.0076319  90.1750981  72.8323118  12.8601282  89.2467689  73.0130688
  13.8329813  90.1971072  72.3480193   6.8738564  78.8269048  68.6903610
   7.2134636  79.3554970  67.9682219   7.3210684  79.1649454  69.4662177
  16.6110441  90.9979540  73.9187991  17.5356989  90.7922401  73.7812442
  16.4425745  90.7495941  74.8277332   9.5682005  77.2106099  78.1406678
   9.2278825  76.4113912  78.5427358   8.8621011  77.5107810  77.5683511
  10.2198476  74.2955411  76.5934001  11.0424546  73.8215890  76.4712892
  10.4636540  75.0745895  77.0932688   8.8606711  77.3243670  66.8896903
   9.5815073  77.7024923  66.3860620   8.2372015  78.0432547  66.9931881
  13.0037834  78.0288819  67.8255235  13.2201448  78.9113457  67.5244063
  12.5231901  77.6375032  67.0960877   7.7437055  80.9874532  74.4025980
   7.5981636  81.3014835  75.2950261   7.2662259  81.6059432  73.8496879
   9.6033438  77.9777080  74.4506869   9.5895007  77.0818173  74.1139167
  10.3205866  77.9847744  75.0845155  11.4559569  78.4114420  76.4959997
  11.1977347  79.3331491  76.4944327  10.9244609  78.0144855  77.1860461
  16.4005758  91.5165207  69.2750082  16.5742635  90.9511630  68.5223935
  16.8934649  92.3166102  69.0929572   2.2182717  83.5279876  77.3413641
   1.6736185  84.3039684  77.4733915   3.0962067  83.8750681  77.1832762
   9.0070334  76.8591460  69.7194440   9.1286245  75.9308107  69.9185327
   8.7172376  76.8730146  68.8072755  11.8761524  74.5446371  72.8561159
  11.8983221  74.6085704  71.9013139  12.2929583  73.7050879  73.0501666
  22.2545149  84.2801630  70.8940382  22.6976295  83.5308956  70.4959505
  21.3771659  84.2711767  70.5114114  17.3880930  90.8331972  66.3746981
  18.0831835  91.4538664  66.5934295  17.7304080  89.9827323  66.6499358
   3.0048739  82.6549773  80.2343798   2.2630475  82.8032408  80.8208428
   2.6841483  82.9158038  79.3710547  19.2872353  88.2831677  67.9034311
  19.8123677  88.6218950  67.1783631  19.1994706  87.3478693  67.7197446
  10.9492402  92.1965751  80.0324188  11.2579528  91.9514898  80.9046888
  11.7467884  92.4012389  79.5443058  10.9713014  94.3503661  72.2629564
  10.5318004  93.8580039  72.9562421  11.7221131  93.8076628  72.0221640
   3.4505353  90.5415201  72.2654193   4.2763373  90.2418973  71.8852836
   3.0999405  89.7722824  72.7143981   8.4186886  89.8941670  74.3351866
   7.7966895  89.2312375  74.0354094   9.0891753  89.9202802  73.6525514
   1.6513958  88.4601528  73.2243126   0.8145866  88.0323702  73.0427127
   1.6237603  88.6533971  74.1613917   8.4911414  78.3723458  83.9284372
   8.5399569  79.2485581  83.5462142   9.0333928  77.8300851  83.3556015
  18.9766259  88.9164581  83.2085509  18.1861803  88.8988720  82.6690009
  18.7399614  89.4552875  83.9634546  19.0964134  85.7657047  80.5218238
  19.1462139  85.6007055  81.4633761  18.9878058  84.8984306  80.1316119
   7.9800393  88.4445593  67.8110327   8.1288513  89.1281057  67.1576999
   8.7866836  88.4250683  68.3259782  16.3867897  81.7487975  81.8377545
  17.2877759  81.6094440  81.5461542  16.4615871  81.9142430  82.7775722
  10.7210702  79.1254830  80.6830731   9.8514011  79.4188396  80.4113319
  10.9570182  79.7095275  81.4037994  20.5982331  88.1853989  80.7660259
  20.3067139  88.5483969  81.6023720  19.9854462  87.4720997  80.5873591
  21.7978013  85.7506869  73.2862830  22.6324905  86.1896673  73.4500390
  21.9337142  85.2745522  72.4671075  18.8469519  83.3086603  79.2340317
  19.3223641  83.5014250  78.4259169  17.9235085  83.3645789  78.9883701
   5.7353026  84.4710771  68.8171396   5.4899068  83.5673101  69.0151606
   5.9048940  84.4727921  67.8750874  13.4249736  75.3434447  78.1996151
  13.9431680  76.0795474  77.8742640  13.0704869  75.6498440  79.0342910
   5.0048673  80.2039128  66.3157557   4.3117918  80.2783483  65.6597593
   4.7600425  79.4399472  66.8379074  13.6762330  71.7634730  73.7197048
  13.9564084  71.0957919  74.3457474  14.4612937  71.9563825  73.2071712
  11.4795798  90.9393723  65.2822074  10.9069766  91.5583911  64.8292546
  12.0528592  91.4893085  65.8161996  17.5471188  80.1852364  77.4668623
  18.4988611  80.2850461  77.4880847  17.3774639  79.3930632  77.9766707
  15.5685568  77.2707947  77.6528024  14.9735500  77.5512959  76.9574512
  15.2835264  77.7601848  78.4244765  14.6993058  91.2230874  66.4130656
  15.6323731  91.1576435  66.6163532  14.6116271  92.0587140  65.9545189
  17.3281075  90.5396744  63.3734604  17.2494706  90.2056608  64.2670362
  18.1490742  91.0318512  63.3726076  20.0259266  83.4058483  76.5810923
  19.9935586  82.4674484  76.7670606  20.6359890  83.4842520  75.8476747
  11.8642597  82.2754536  62.6238127  12.8101702  82.1460744  62.6926545
  11.4856842  81.5369198  63.1007555  20.1753755  80.1969527  76.6269206
  19.6592803  79.4127983  76.4399135  21.0593703  79.8688243  76.7915725
  17.8364482  73.9410542  72.5865018  17.6389303  73.6325630  73.4708350
  18.4464187  74.6672181  72.7162948  25.8435816  84.4674490  75.7216959
  26.5739204  84.2059778  76.2824663  25.2342761  83.7303212  75.7619027
  23.9251113  82.6082353  76.3191411  23.1984277  82.4738318  75.7107902
  23.5098400  82.9159181  77.1248129  11.7481289  86.3272282  84.0838784
  12.6684299  86.5050881  84.2778830  11.7130873  85.3828328  83.9318483
  10.0485514  80.2004513  62.5593012   9.1416970  79.9037625  62.6355725
  10.3261495  79.9034331  61.6927298   0.9663454  81.5210876  73.0092058
   0.6466239  80.6676184  72.7166432   0.4196883  81.7359454  73.7650026
   4.7443362  84.2373317  76.7261565   4.9629372  85.1690425  76.7449599
   5.1569136  83.8781291  77.5116369  11.6647580  74.7441402  68.7137253
  10.8548308  74.3988487  69.0892499  12.3531997  74.4348946  69.3024865
  13.5938128  73.8219449  70.3361550  14.1469167  74.2414903  70.9951573
  13.8308214  72.8955197  70.3784506   9.6171227  79.8106523  86.1164314
   9.5167954  80.7600880  86.0476405   9.3992769  79.4824762  85.2440384
   8.8184299  77.0591448  62.7004991   9.6803463  77.3846346  62.9600808
   9.0034643  76.2722944  62.1878057  16.9716935  75.9319974  69.8440214
  16.3915604  76.5904778  69.4618266  16.7052868  75.1097319  69.4327632
  15.4220502  75.3325032  72.0461534  15.9220280  75.4441567  71.2375853
  16.0656110  75.0286085  72.6862343   9.4802497  83.2403662  84.9329375
   8.9969579  84.0404022  85.1393264   9.5663436  83.2511606  83.9796819
   2.7488457  85.0732041  72.8551195   2.7259145  85.1719729  71.9033078
   3.0589094  85.9197192  73.1768361   5.4075835  87.1308196  76.9697809
   6.3619088  87.0992139  76.9027741   5.2088358  86.6698820  77.7848035
   5.9975217  85.7009312  79.5368607   6.8168106  86.1953391  79.5603444
   6.2712025  84.7841281  79.5086174  15.7541813  78.0920065  68.8996562
  14.8667668  78.3769715  68.6816757  16.1695802  77.9313828  68.0523839
  19.1056349  78.1166586  72.6150902  19.8816739  78.6063038  72.8875518
  18.3804484  78.5424640  73.0722771  21.5428908  78.8294205  73.6724842
  22.1373399  78.5889941  72.9618150  21.6155492  78.1101335  74.2998378
   3.7626064  92.6727816  73.9868007   3.6280532  91.9128217  73.4206005
   3.3458126  93.3968716  73.5196796  14.8985027  87.8564739  62.9944582
  15.6020877  88.0614742  63.6102238  14.1747675  88.4241501  63.2593666
  15.7282837  83.6074601  69.1146852  15.6718038  84.0643152  68.2754485
  16.2811179  82.8465285  68.9369695  19.5387643  79.3964332  69.9396972
  19.2824577  78.9960968  70.7705180  18.9140511  80.1108126  69.8147111
  23.8499981  82.1360406  72.4468263  23.2899539  82.2053595  73.2199825
  23.2443484  81.9601390  71.7267760   6.9195190  93.5697133  74.1986450
   6.8027574  94.5142565  74.0965140   6.0987636  93.2670694  74.5872249
  16.8071724  88.2947269  65.0443042  17.6417328  87.8628467  64.8620517
  16.6456067  88.1229282  65.9719937  16.4617616  84.7979382  66.4099382
  16.4066420  84.6323653  65.4687826  15.8363672  85.5055415  66.5661571
   1.2510131  80.0347446  80.2360804   1.8968995  79.5246400  80.7248029
   1.0427282  80.7716128  80.8104229  13.7763523  87.1028294  85.7352944
  14.6454683  87.2768946  85.3739579  13.2970275  87.9222711  85.6128674
   9.7713742  74.2987491  65.9884700   9.7592412  75.2429331  66.1452971
  10.6637164  74.1157636  65.6944161   7.9449704  94.2225395  77.4142378
   8.8476950  94.2549005  77.7308873   7.7187074  93.2925846  77.4288714
   9.7003306  92.9756381  74.0752457   8.7498937  92.9758243  73.9616829
  10.0035792  92.2289116  73.5588491  13.5865861  70.8930267  70.2430637
  12.8198257  70.3388754  70.3887319  13.9976566  70.9652136  71.1044788
   5.5907622  77.1815063  84.3335818   6.4539084  76.8251868  84.5439143
   5.0173033  76.8428958  85.0211222  25.4355999  98.8116920  75.1398219
  26.0734409  98.6923667  74.4361559  25.3176842  99.7597764  75.1986171
  22.2445705  98.7644348  75.0759744  21.9064217  98.6485412  74.1880279
  23.1135474  98.3635513  75.0560750  18.1032521 100.6179824  71.0656635
  17.5397386 100.5269761  70.2972922  17.9884916  99.7979729  71.5459127
  22.7265488  99.9179199  81.0345949  22.7154129  99.5231998  80.1626453
  22.8886128  99.1845272  81.6279721  15.6496953 102.1131016  73.9040855
  16.4418245 101.7721840  73.4887154  15.8893603 102.2225991  74.8243009
  23.6832080 104.2850792  66.3771100  23.0320060 104.8704872  65.9905113
  24.4776443 104.8156987  66.4366137  17.6087707 101.3739929  66.7758234
  18.3818583 100.8268916  66.6371110  17.9613106 102.2384178  66.9872695
  19.4472750 102.7016311  79.9825133  19.1562616 103.6061942  79.8671800
  20.0829734 102.7432839  80.6969203  20.3728956 100.0793160  76.5726493
  20.9692529  99.8549182  75.8583456  20.4303928  99.3377905  77.1751941
  19.9453985  97.5332595  64.4076684  20.1979506  97.0114116  63.6460147
  19.0078544  97.3698741  64.5103368  24.9897268  96.5368374  72.2151427
  25.7760357  96.1187797  71.8641844  25.2535972  97.4414466  72.3833076
  25.1607345 101.9741224  66.9140084  24.5253178 102.0475850  67.6260989
  24.8304751 102.5634823  66.2359163  30.3905695  96.4743607  73.1184406
  31.1230867  95.9042824  73.3522235  29.6345051  96.0865207  73.5590911
  19.6650274  99.4360701  66.6101059  19.5486532  98.7605604  67.2782143
  19.7752534  98.9493075  65.7933212  22.0081815  98.8970848  70.3147748
  21.6440022  98.3701469  71.0260670  22.8648930  98.5069317  70.1414234
  27.9131115  90.1865181  77.5779014  27.5814440  91.0560592  77.3540229
  27.3176729  89.8701465  78.2573045  21.6487302  93.9260748  65.3109097
  21.8161704  94.7940984  65.6779568  21.4584471  94.0888030  64.3870386
  24.4062635 102.3877727  76.9774927  24.1063358 103.2902766  76.8690734
  24.0613694 102.1209910  77.8296080  17.8575116  98.8391524  73.0111631
  16.9325613  98.7067738  73.2189323  18.1059529  99.6185743  73.5081574
  27.8059778  94.9060267  74.6572364  26.8976656  94.8375675  74.3631125
  27.7547374  95.3832212  75.4854190  21.6276522  96.3818405  66.2955763
  21.5076148  96.8275456  67.1341244  20.9329111  96.7303723  65.7369302
  15.2183927  98.4824797  73.8455420  15.3476308  98.7359276  74.7594832
  14.5381379  99.0752505  73.5260076  21.8800644  96.3249913  82.6007262
  21.1033978  96.8843833  82.5910126  22.5191207  96.8106696  83.1222132
  29.6721425  93.1076705  76.4350238  29.0295805  93.4009239  75.7890033
  29.1676353  92.9929626  77.2403435  27.3261589  96.8539879  67.1236097
  28.2379445  97.0867265  66.9483795  26.8171236  97.4376923  66.5611176
  20.1347017  99.1335366  82.1625229  20.8761701  99.6720410  81.8860052
  19.4284002  99.7601655  82.3196780  25.6102356 101.2764506  80.7597390
  26.0185712 100.8346917  80.0152022  24.8879618 100.7017134  81.0131583
  21.9633426  96.2137113  78.1330947  22.8094621  96.6376527  78.2765596
  21.9032064  95.5570737  78.8269510  25.9331171 101.8365697  74.5149679
  25.3040033 102.0011411  73.8125747  25.5456833 102.2507307  75.2860643
  29.8120403 102.7720135  71.8694043  29.1271441 103.1519036  71.3191076
  29.8964252 103.3815462  72.6025990  25.1132872  93.8741482  79.7912121
  24.8693803  94.6283542  79.2546396  25.3892802  94.2526829  80.6259368
  27.0671334 100.4180094  78.4689386  27.2788230 101.0611854  77.7923767
  27.0201083  99.5842410  78.0011316  24.6697563  93.0297915  75.3725958
  23.8082042  93.3279168  75.6642696  24.6959998  93.2468313  74.4406991
  21.4859133 101.5740105  71.7799764  21.9497478 101.8527808  70.9904387
  21.2215931 100.6723550  71.5972855  18.3783214 101.1211587  74.7179527
  18.9484571 101.5498855  74.0797012  18.9691326 100.8394171  75.4163713
  20.4228019  97.6963257  68.5889329  21.1252062  98.1484301  69.0563256
  20.0908647  97.0547076  69.2169222  18.8708380  96.2875014  82.9640539
  18.2407041  96.9691295  83.1975935  18.7644468  96.1758096  82.0193677
  14.1653353  95.9546810  73.8906463  13.3752407  96.2104339  73.4146573
  14.6564600  96.7695148  73.9958503  28.1817162 103.2952049  76.6411744
  29.0034606 102.8932237  76.3594425  28.1779565 103.1920283  77.5927859
  16.1168098  96.3191389  70.8489939  15.3199261  96.4310084  71.3673435
  15.8893690  96.6578042  69.9830830  21.9473766 102.8436093  78.7972454
  22.0118198 103.3056500  79.6330626  21.2384690 102.2133458  78.9254764
  12.4491056  96.2077301  76.3221454  12.6999094  97.0924311  76.5879029
  12.9850604  96.0281902  75.5496545  36.2723155  99.6390798  72.9896715
  35.5186864  99.0698196  72.8340719  36.4070697  99.6053462  73.9367350
  21.6621783 104.5104200  68.6651434  21.5267458 105.3555736  69.0936282
  22.2031596 104.7123478  67.9017368  18.1489123  90.5895780  85.3265790
  17.7556069  90.0361979  86.0013434  18.9655263  90.9006358  85.7172307
  15.1151181 102.0279638  69.2379359  15.6275701 102.8222888  69.3884924
  15.7673894 101.3305929  69.1712961  16.9246066 105.1445394  71.3202113
  17.1012694 106.0663359  71.1323097  17.7202899 104.8303814  71.7496492
  21.0657084  92.0053659  82.9186046  21.8066797  92.6060812  82.8390509
  21.2975007  91.2631297  82.3604089  16.2098422  97.1910026  81.1964276
  16.0951937  96.2895284  81.4971375  15.3542940  97.4373723  80.8449092
  23.2890260 105.1327767  82.7951776  22.8454114 104.3464145  82.4772681
  23.9507473 105.3206917  82.1295667  18.0477381 106.6623568  77.3212455
  18.5984806 106.5340632  76.5489449  17.2088857 106.9618457  76.9707348
  25.3871498 105.4130567  80.8233178  25.3689973 106.2339448  80.3313447
  26.3091418 105.2884642  81.0483319  21.8444552 102.9274696  81.6656686
  22.3772889 102.1662984  81.4355994  21.3158633 102.6348348  82.4080841
  25.0114247  88.0334762  77.1950328  24.6678516  88.9236404  77.1189438
  25.3793210  87.8436420  76.3319913  13.0800098 100.3568292  70.0138930
  13.9175320 100.7665301  69.7972638  13.2578365  99.4167735  69.9839124
  24.9764530  98.0243373  65.7022763  24.4611153  98.7947978  65.9411150
  24.7041838  97.3508509  66.3255824  22.5611641  92.8693074  70.7608001
  21.7053237  92.4799924  70.5813640  22.9738593  92.9485035  69.9007787
  24.0910787  90.4039417  75.1599561  23.5875583  90.3669552  74.3467366
  24.3841394  91.3132160  75.2196218  20.3353673  90.4878147  74.1665743
  21.2006670  90.2920956  73.8071632  20.4031182  90.2588499  75.0935100
  29.9498804 100.7775728  67.6375936  29.1728247 100.4386887  67.1931099
  30.6290285 100.7828351  66.9630902  24.7650833  95.8970465  67.5282544
  24.4600968  96.2116614  68.3792687  25.7181275  95.9751885  67.5709877
  23.2097265 102.0560689  69.1775498  22.6818626 101.3213448  68.8648736
  22.7084767 102.8335365  68.9315466  28.1890111 100.2509709  74.2942544
  27.5313785 100.9408970  74.3822673  28.9930510 100.6406141  74.6376531
  17.9415992  92.7180355  71.5382110  18.5159744  92.4955536  70.8055303
  18.5286975  92.7869049  72.2910711  26.9995570  98.6054082  72.3446486
  27.5127451  99.2384074  72.8468196  27.6496793  98.0055277  71.9789846
  18.2685579  94.7484816  65.5577995  17.4322892  95.0859502  65.8787270
  18.1290349  94.6133796  64.6205132  20.2438660  89.5921604  70.2657179
  19.5903072  89.2770621  69.6413794  20.2019134  88.9697344  70.9917002
  21.3549865  99.8740899  62.1810471  20.4476927  99.6430152  62.3801620
  21.8520897  99.0778518  62.3684453  24.2617944 108.5838406  65.1007157
  23.5879643 108.8870103  65.7092115  24.6483766 109.3867486  64.7512614
  23.4776400  96.0803537  74.5904827  22.5598962  96.3018484  74.4326515
  23.8936544  96.1549848  73.7316534  24.2611448  97.4794953  69.7207507
  25.0083267  97.9916350  69.4114629  24.5303038  97.1579006  70.5811901
  22.5338098  99.9753494  66.7034461  21.6249318  99.6912526  66.8006931
  22.5633182 100.3952572  65.8437768  27.7657366 103.5860083  70.4725629
  27.3119693 102.7450993  70.5290819  27.1351332 104.2221482  70.8100409
  26.7090285  94.5152069  71.7026296  25.9713042  94.0029455  72.0336539
  26.9617059  94.0752451  70.8909573  26.2090305 105.4236580  71.4075447
  26.5013279 105.9841637  70.6887813  26.7188926 105.7165141  72.1628606
  26.8101913  87.2928321  72.2968066  27.1160789  86.4325685  72.0093981
  27.5354517  87.8845941  72.0967059  13.1026269  97.6959008  70.6849663
  12.9050669  97.1028368  69.9600730  12.5472933  97.3911218  71.4025602
  21.0822992  97.5882114  72.8044257  21.1371602  96.6355951  72.7286733
  20.2714194  97.7441553  73.2885555  22.2314186 101.5162237  64.0422540
  21.7933616 100.7998096  63.5828177  22.9724627 101.7438352  63.4807631
  19.0215352  96.2059174  70.5634635  18.2083218  96.5053345  70.9699828
  19.5174346  95.8114863  71.2809118  21.1723930 106.2016931  72.4968900
  21.1300109 106.4277777  71.5677432  22.0886629 105.9680306  72.6454701
  24.6189564  96.6700998  79.3949529  24.9738952  96.8972472  80.2543995
  25.2661695  97.0019375  78.7726785  30.3487301  99.7919434  70.0998858
  30.2105200  99.9821030  69.1720048  29.9923520 100.5538817  70.5566910
  18.5129427  93.7777530  76.1795870  19.1528806  93.6366289  75.4818834
  17.6806958  93.4912043  75.8034472  30.3756681 101.8595961  75.1110130
  30.8093187 101.7671250  75.9593184  31.0888261 101.8353462  74.4730146
  19.2889731 103.0779960  72.2930863  20.0830329 102.5830280  72.0913438
  18.5781423 102.5497823  71.9298568  24.1084575 105.4598055  76.6443231
  24.1621598 106.0288992  77.4120946  23.2399357 105.6299941  76.2797268
  15.5972494  97.2223042  68.3690616  14.6670083  97.1607497  68.5860578
  15.6929966  96.6998994  67.5727257  15.5158043  93.7477855  70.9568857
  15.7764861  94.6623188  70.8478018  16.3375216  93.2802297  71.1065470
  16.9882969  95.1615612  78.1267682  17.6606022  94.9532974  77.4780331
  16.1612755  94.9637698  77.6872914  31.2372230 101.9019662  77.6443015
  31.4308120 102.8065473  77.8902290  31.1372848 101.4427081  78.4781600
  22.8908541  91.7877553  80.1433343  22.2436456  92.4867502  80.0497819
  23.6609556  92.2213697  80.5109591  26.2987339 102.0526405  83.2183896
  26.1472845 101.8236956  82.3013980  26.2892018 103.0097006  83.2315241
  23.0672675  99.6258318  78.2030162  23.9964735  99.7769477  78.0299130
  22.6463705  99.7142338  77.3478809  21.8661007 103.6508982  75.9728700
  21.7272093 103.2827766  76.8454638  21.0775603 104.1656621  75.8012658
  22.4609159 108.7518078  67.3154237  22.6360915 108.2806122  68.1299859
  21.7741947 109.3783845  67.5435497  23.4166222 103.0290585  73.3617538
  23.0816055 102.9891355  74.2575188  22.9170168 102.3635301  72.8887948
  17.3910466  98.4358215  78.8870119  17.2530264  97.7038453  79.4881658
  18.3015390  98.3467115  78.6054307  26.3525414 100.3746619  63.6354597
  25.7354584  99.6493447  63.5387650  25.8841902 101.1355979  63.2921672
  20.0192767  98.1478174  78.3753799  20.7292385  97.5071366  78.3340417
  19.9762075  98.3991069  79.2979979  28.0079545 105.0845527  81.2960378
  27.9492092 104.4004747  80.6290961  28.4099064 105.8264517  80.8441004
  18.7321701  95.1343392  80.1949438  18.1959058  94.6834130  80.8471034
  18.1438409  95.2689301  79.4519902  18.1423960  94.5932043  62.7575902
  17.2653426  94.4720844  62.3938148  18.6181713  93.8018122  62.5054790
  28.0096953 103.0485111  79.5274357  27.1223731 102.7111033  79.6500756
  28.5795504 102.3168142  79.7643123   9.6626100  99.3809203  72.8517409
  10.3497140  99.0670933  72.2638424   9.5074228 100.2850568  72.5784660
  14.4660822  94.2699400  77.2802433  14.3819011  93.6625069  76.5452842
  13.6443528  94.7608418  77.2811929  21.5398106 107.7086564  76.4935601
  21.4668278 108.5141535  77.0054905  21.0975499 107.9078529  75.6683622
  21.3287886 106.9458334  70.0038422  20.5455408 107.4880014  70.0976647
  22.0280631 107.4632313  70.4032663  24.6384536  92.7552963  72.6472628
  25.1353235  92.0022925  72.3273698  23.8671517  92.7917280  72.0815837
  32.4914293  98.4593329  74.2890919  32.4804169  99.3418044  73.9184852
  31.6231673  98.1064879  74.0945456  23.9996790 107.6073398  78.6493759
  24.7124762 108.2420862  78.5769661  23.5086818 107.7037264  77.8333761
  25.7214317 101.5124650  70.2211051  24.7870595 101.6326113  70.0515755
  25.8990985 100.6097117  69.9571061  21.2219505  94.8970346  72.3744312
  20.8517292  94.3441386  73.0625218  21.7178597  94.2928480  71.8219312
  29.1086868  97.3541970  70.7561085  29.5747320  98.1869961  70.6821388
  29.5594368  96.8886951  71.4606344  19.0508703 105.3567841  79.4699330
  19.7518163 105.9904324  79.6228724  18.5803818 105.6982573  78.7094969
  27.1763099 103.6985791  67.7547237  27.4522943 103.5842385  68.6641111
  26.3067598 103.3003276  67.7159410  27.0803531  89.7222557  74.7951986
  26.1666610  89.9526783  74.9634193  27.5096632  89.8061001  75.6466019
  26.8509989  97.9112449  77.2951880  26.1981439  98.1588356  76.6404333
  27.2290369  97.0976587  76.9614358  23.8117163 107.9472142  71.3980051
  23.9939558 107.1293798  71.8607803  24.6350149 108.1639834  70.9604941
  24.1459328 106.8740327  68.6595099  24.6747095 106.3632781  68.0465261
  24.4087548 106.5582857  69.5240632  22.8997562  98.6532260  83.7817918
  22.2238199  98.5526389  84.4520293  23.7225196  98.4971473  84.2453915
  14.6476421 104.8904196  76.4030433  15.2329858 104.1447884  76.5358337
  14.4501260 105.2008153  77.2867097  17.5015076 107.9255444  71.4192875
  16.8325452 108.4101571  70.9356915  17.3627946 108.1724664  72.3336254
   9.2394076  97.4609796  75.1234876   9.2778175  96.9273387  75.9171994
   8.7334369  96.9345002  74.5045853  21.6420345 109.9599187  78.0175534
  22.1938653 110.1230809  78.7824619  21.9826538 110.5503625  77.3455558
  16.6184838  92.3074337  78.6197418  16.6826165  93.1689168  78.2074816
  16.5551958  91.6948339  77.8869777  16.0937111  94.3797469  82.2670453
  16.7209150  93.9974547  82.8807977  15.2365030  94.1611671  82.6326145
  26.4931219 104.7860445  83.8724188  27.0371123 105.3990403  83.3779143
  25.9118064 105.3440023  84.3891201  12.8702654  96.1873899  68.1988807
  13.1656095  95.2784577  68.1455861  11.9690689  96.1661638  67.8769810
  24.7788732 107.9081163  75.0039216  24.6539872 107.1070902  74.4950161
  25.4367823 108.4027356  74.5153186  16.3996901  94.2629895  74.1816356
  15.6783486  94.8765863  74.0423829  17.1890156  94.7987660  74.1033002
  26.8423641 105.7090183  76.6318766  25.8953976 105.5895534  76.5597093
  27.1906414 104.8212681  76.7145027  19.2023214  91.5984322  80.4557008
  19.7257616  91.8446618  81.2183317  18.9835547  92.4304356  80.0360145
  14.5990495  93.8687996  68.3228133  14.2703201  92.9885375  68.1403238
  14.9529866  93.8135665  69.2104522  23.8470074 105.5042899  72.8323118
  23.6995036 104.5759606  73.0130688  24.6723567 105.5262990  72.3480193
  17.7132318  94.1560966  68.6903610  18.0528391  94.6846887  67.9682219
  18.1604439  94.4941372  69.4662177  27.4504196 106.3271458  73.9187991
  28.3750743 106.1214319  73.7812442  27.2819499 106.0787859  74.8277332
  20.4075759  92.5398017  78.1406678  20.0672579  91.7405830  78.5427358
  19.7014765  92.8399728  77.5683511  21.0592231  89.6247329  76.5934001
  21.8818300  89.1507807  76.4712892  21.3030294  90.4037813  77.0932688
  19.7000465  92.6535588  66.8896903  20.4208828  93.0316840  66.3860620
  19.0765770  93.3724464  66.9931881  23.8431588  93.3580737  67.8255235
  24.0595203  94.2405374  67.5244063  23.3625655  92.9666950  67.0960877
  18.5830810  96.3166450  74.4025980  18.4375390  96.6306753  75.2950261
  18.1056013  96.9351350  73.8496879  20.4427193  93.3068998  74.4506869
  20.4288761  92.4110091  74.1139167  21.1599621  93.3139661  75.0845155
  22.2953323  93.7406338  76.4959997  22.0371101  94.6623409  76.4944327
  21.7638364  93.3436772  77.1860461  27.2399512 106.8457125  69.2750082
  27.4136390 106.2803548  68.5223935  27.7328403 107.6458020  69.0929572
  13.0576472  98.8571794  77.3413641  12.5129940  99.6331602  77.4733915
  13.9355822  99.2042599  77.1832762  19.8464088  92.1883378  69.7194440
  19.9680000  91.2600024  69.9185327  19.5566131  92.2022064  68.8072755
  22.7155279  89.8738288  72.8561159  22.7376976  89.9377622  71.9013139
  23.1323338  89.0342797  73.0501666  33.0938903  99.6093548  70.8940382
  33.5370049  98.8600873  70.4959505  32.2165413  99.6003684  70.5114114
  28.2274685 106.1623889  66.3746981  28.9225589 106.7830582  66.5934295
  28.5697835 105.3119241  66.6499358  13.8442494  97.9841690  80.2343798
  13.1024230  98.1324326  80.8208428  13.5235238  98.2449956  79.3710547
  30.1266108 103.6123595  67.9034311  30.6517432 103.9510868  67.1783631
  30.0388460 102.6770610  67.7197446  21.7886156 107.5257669  80.0324188
  22.0973283 107.2806815  80.9046888  22.5861638 107.7304307  79.5443058
  21.8106768 109.6795578  72.2629564  21.3711759 109.1871957  72.9562421
  22.5614885 109.1368546  72.0221640  14.2899107 105.8707119  72.2654193
  15.1157127 105.5710891  71.8852836  13.9393159 105.1014742  72.7143981
  19.2580641 105.2233587  74.3351866  18.6360650 104.5604292  74.0354094
  19.9285507 105.2494719  73.6525514  12.4907712 103.7893446  73.2243126
  11.6539621 103.3615620  73.0427127  12.4631358 103.9825889  74.1613917
  19.3305168  93.7015375  83.9284372  19.3793323  94.5777498  83.5462142
  19.8727682  93.1592768  83.3556015  29.8160014 104.2456499  83.2085509
  29.0255557 104.2280637  82.6690009  29.5793368 104.7844792  83.9634546
  29.9357889 101.0948965  80.5218238  29.9855894 100.9298972  81.4633761
  29.8271812 100.2276224  80.1316119  18.8194147 103.7737511  67.8110327
  18.9682268 104.4572975  67.1576999  19.6260591 103.7542601  68.3259782
  27.2261651  97.0779893  81.8377545  28.1271514  96.9386358  81.5461542
  27.3009626  97.2434348  82.7775722  21.5604456  94.4546748  80.6830731
  20.6907766  94.7480314  80.4113319  21.7963937  95.0387193  81.4037994
  31.4376086 103.5145907  80.7660259  31.1460894 103.8775887  81.6023720
  30.8248217 102.8012915  80.5873591  32.6371768 101.0798786  73.2862830
  33.4718659 101.5188590  73.4500390  32.7730897 100.6037440  72.4671075
  29.6863274  98.6378521  79.2340317  30.1617395  98.8306167  78.4259169
  28.7628839  98.6937707  78.9883701  16.5746780  99.8002688  68.8171396
  16.3292822  98.8965018  69.0151606  16.7442695  99.8019839  67.8750874
  24.2643490  90.6726365  78.1996151  24.7825434  91.4087392  77.8742640
  23.9098623  90.9790358  79.0342910  15.8442428  95.5331046  66.3157557
  15.1511673  95.6075401  65.6597593  15.5994180  94.7691390  66.8379074
  24.5156084  87.0926647  73.7197048  24.7957838  86.4249836  74.3457474
  25.3006691  87.2855743  73.2071712  22.3189553 106.2685641  65.2822074
  21.7463520 106.8875828  64.8292546  22.8922347 106.8185003  65.8161996
  28.3864943  95.5144281  77.4668623  29.3382366  95.6142379  77.4880847
  28.2168393  94.7222550  77.9766707  26.4079322  92.5999864  77.6528024
  25.8129254  92.8804877  76.9574512  26.1229019  93.0893765  78.4244765
  25.5386813 106.5522791  66.4130656  26.4717486 106.4868353  66.6163532
  25.4510026 107.3879058  65.9545189  28.1674829 105.8688662  63.3734604
  28.0888461 105.5348525  64.2670362  28.9884496 106.3610430  63.3726076
  30.8653021  98.7350401  76.5810923  30.8329341  97.7966402  76.7670606
  31.4753644  98.8134438  75.8476747  22.7036351  97.6046454  62.6238127
  23.6495456  97.4752662  62.6926545  22.3250596  96.8661116  63.1007555
  31.0147509  95.5261444  76.6269206  30.4986558  94.7419901  76.4399135
  31.8987458  95.1980161  76.7915725  28.6758236  89.2702460  72.5865018
  28.4783057  88.9617548  73.4708350  29.2857942  89.9964099  72.7162948
  36.6829570  99.7966408  75.7216959  37.4132959  99.5351696  76.2824663
  36.0736516  99.0595130  75.7619027  34.7644868  97.9374270  76.3191411
  34.0378031  97.8030235  75.7107902  34.3492154  98.2451099  77.1248129
  22.5875044 101.6564200  84.0838784  23.5078053 101.8342799  84.2778830
  22.5524627 100.7120245  83.9318483  20.8879269  95.5296430  62.5593012
  19.9810724  95.2329543  62.6355725  21.1655250  95.2326248  61.6927298
  11.8057209  96.8502794  73.0092058  11.4859993  95.9968102  72.7166432
  11.2590637  97.0651372  73.7650026  15.5837117  99.5665235  76.7261565
  15.8023126 100.4982343  76.7449599  15.9962890  99.2073209  77.5116369
  22.5041334  90.0733320  68.7137253  21.6942063  89.7280405  69.0892499
  23.1925751  89.7640864  69.3024865  24.4331883  89.1511367  70.3361550
  24.9862921  89.5706820  70.9951573  24.6701969  88.2247115  70.3784506
  20.4564982  95.1398440  86.1164314  20.3561709  96.0892797  86.0476405
  20.2386524  94.8116679  85.2440384  19.6578053  92.3883366  62.7004991
  20.5197217  92.7138264  62.9600808  19.8428397  91.6014861  62.1878057
  11.6745469 100.4705705  74.9785180  10.9808940 100.0559658  74.4655134
  12.4218460 100.5126242  74.3818599  27.8110690  91.2611892  69.8440214
  27.2309359  91.9196696  69.4618266  27.5446622  90.4389237  69.4327632
  26.2614256  90.6616950  72.0461534  26.7614034  90.7733484  71.2375853
  26.9049864  90.3578003  72.6862343  20.3196252  98.5695579  84.9329375
  19.8363334  99.3695939  85.1393264  20.4057191  98.5803524  83.9796819
  13.5882212 100.4023959  72.8551195  13.5652900 100.5011646  71.9033078
  13.8982848 101.2489110  73.1768361  16.2469589 102.4600114  76.9697809
  17.2012843 102.4284056  76.9027741  16.0482113 101.9990738  77.7848035
  16.8368972 101.0301230  79.5368607  17.6561861 101.5245309  79.5603444
  17.1105779 100.1133198  79.5086174  26.5935568  93.4211982  68.8996562
  25.7061423  93.7061633  68.6816757  27.0089557  93.2605746  68.0523839
  29.9450104  93.4458503  72.6150902  30.7210494  93.9354956  72.8875518
  29.2198238  93.8716558  73.0722771  32.3822662  94.1586123  73.6724842
  32.9767153  93.9181859  72.9618150  32.4549246  93.4393253  74.2998378
  25.7378781 103.1856657  62.9944582  26.4414631 103.3906660  63.6102238
  25.0141430 103.7533419  63.2593666  26.5676591  98.9366518  69.1146852
  26.5111793  99.3935070  68.2754485  27.1204934  98.1757203  68.9369695
  30.3781397  94.7256250  69.9396972  30.1218332  94.3252886  70.7705180
  29.7534265  95.4400044  69.8147111  34.6893735  97.4652323  72.4468263
  34.1293293  97.5345513  73.2199825  34.0837239  97.2893308  71.7267760
  27.6465479 103.6239186  65.0443042  28.4811083 103.1920385  64.8620517
  27.4849822 103.4521200  65.9719937  27.3011371 100.1271300  66.4099382
  27.2460175  99.9615571  65.4687826  26.6757426 100.8347332  66.5661571
  12.0903886  95.3639364  80.2360804  12.7362749  94.8538318  80.7248029
  11.8821037  96.1008046  80.8104229  24.6157278 102.4320211  85.7352944
  25.4848438 102.6060864  85.3739579  24.1364029 103.2514628  85.6128674
  20.6107496  89.6279409  65.9884700  20.5986166  90.5721248  66.1452971
  21.5030918  89.4449554  65.6944161  18.7843458 109.5517312  77.4142378
  19.6870705 109.5840923  77.7308873  18.5580828 108.6217763  77.4288714
  20.5397060 108.3048299  74.0752457  19.5892691 108.3050161  73.9616829
  20.8429546 107.5581034  73.5588491  24.4259616  86.2222185  70.2430637
  23.6592012  85.6680672  70.3887319  24.8370321  86.2944054  71.1044788
  16.4301377  92.5106981  84.3335818  17.2932838  92.1543786  84.5439143
  15.8566787  92.1720876  85.0211222  36.2749754 114.1408837  75.1398219
  36.9128164 114.0215585  74.4361559  36.1570597 115.0889681  75.1986171
  33.0839460 114.0936265  75.0759744  32.7457971 113.9777330  74.1880279
  33.9529228 113.6927431  75.0560750  30.7847739 112.8624513  64.4076684
  31.0373260 112.3406034  63.6460147  29.8472298 112.6990658  64.5103368
  35.8291022 111.8660291  72.2151427  36.6154111 111.4479714  71.8641844
  36.0929727 112.7706383  72.3833076  41.2299449 111.8035524  73.1184406
  41.9624621 111.2334741  73.3522235  40.4738805 111.4157125  73.5590911
  32.8475569 114.2262766  70.3147748  32.4833776 113.6993387  71.0260670
  33.7042685 113.8361235  70.1414234  38.7524870 105.5157098  77.5779014
  38.4208194 106.3852509  77.3540229  38.1570483 105.1993382  78.2573045
  32.4881056 109.2552666  65.3109097  32.6555458 110.1232902  65.6779568
  32.2978225 109.4179947  64.3870386  38.6453533 110.2352185  74.6572364
  37.7370410 110.1667593  74.3631125  38.5941129 110.7124130  75.4854190
  32.4670277 111.7110323  66.2955763  32.3469902 112.1567374  67.1341244
  31.7722865 112.0595641  65.7369302  32.7194399 111.6541830  82.6007262
  31.9427733 112.2135750  82.5910126  33.3584962 112.1398613  83.1222132
  40.5115179 108.4368623  76.4350238  39.8689560 108.7301156  75.7890033
  40.0070108 108.3221543  77.2403435  38.1655343 112.1831796  67.1236097
  39.0773199 112.4159183  66.9483795  37.6564990 112.7668840  66.5611176
  32.8027181 111.5429031  78.1330947  33.6488376 111.9668444  78.2765596
  32.7425818 110.8862655  78.8269510  35.9526626 109.2033399  79.7912121
  35.7087558 109.9575460  79.2546396  36.2286557 109.5818747  80.6259368
  37.9065089 115.7472012  78.4689386  38.1181984 116.3903771  77.7923767
  37.8594837 114.9134328  78.0011316  35.5091318 108.3589832  75.3725958
  34.6475797 108.6571086  75.6642696  35.5353752 108.5760231  74.4406991
  31.2621773 113.0255175  68.5889329  31.9645817 113.4776219  69.0563256
  30.9302402 112.3838994  69.2169222  29.7102135 111.6166932  82.9640539
  29.0800795 112.2983213  83.1975935  29.6038223 111.5050013  82.0193677
  26.9561853 111.6483307  70.8489939  26.1593016 111.7602001  71.3673435
  26.7287445 111.9869959  69.9830830  47.1116910 114.9682715  72.9896715
  46.3580618 114.3990114  72.8340719  47.2464451 114.9345380  73.9367350
  28.9882878 105.9187698  85.3265790  28.5949823 105.3653896  86.0013434
  29.8049018 106.2298276  85.7172307  31.9050839 107.3345577  82.9186046
  32.6460552 107.9352730  82.8390509  32.1368761 106.5923215  82.3604089
  35.8508001 103.3626680  77.1950328  35.5072271 104.2528321  77.1189438
  36.2186964 103.1728337  76.3319913  35.8158284 113.3535291  65.7022763
  35.3004908 114.1239895  65.9411150  35.5435593 112.6800427  66.3255824
  33.4005395 108.1984992  70.7608001  32.5446992 107.8091842  70.5813640
  33.8132347 108.2776952  69.9007787  34.9304542 105.7331335  75.1599561
  34.4269337 105.6961470  74.3467366  35.2235149 106.6424078  75.2196218
  31.1747428 105.8170065  74.1665743  32.0400425 105.6212873  73.8071632
  31.2424937 105.5880416  75.0935100  40.7892558 116.1067645  67.6375936
  40.0122001 115.7678805  67.1931099  41.4684039 116.1120269  66.9630902
  35.6044587 111.2262383  67.5282544  35.2994723 111.5408532  68.3792687
  36.5575029 111.3043803  67.5709877  39.0283865 115.5801627  74.2942544
  38.3707540 116.2700888  74.3822673  39.8324264 115.9698059  74.6376531
  28.7809747 108.0472272  71.5382110  29.3553499 107.8247454  70.8055303
  29.3680729 108.1160967  72.2910711  37.8389324 113.9345999  72.3446486
  38.3521206 114.5675991  72.8468196  38.4890548 113.3347195  71.9789846
  29.1079334 110.0776734  65.5577995  28.2716646 110.4151420  65.8787270
  28.9684104 109.9425713  64.6205132  31.0832415 104.9213521  70.2657179
  30.4296827 104.6062539  69.6413794  31.0412889 104.2989262  70.9917002
  34.3170155 111.4095455  74.5904827  33.3992716 111.6310402  74.4326515
  34.7330299 111.4841765  73.7316534  35.1005203 112.8086871  69.7207507
  35.8477022 113.3208268  69.4114629  35.3696792 112.4870923  70.5811901
  37.5484040 109.8443987  71.7026296  36.8106797 109.3321373  72.0336539
  37.8010813 109.4044368  70.8909573  37.6495667 102.6220239  72.2968066
  37.9554544 101.7617602  72.0093981  38.3748272 103.2137859  72.0967059
  31.9216747 112.9174032  72.8044257  31.9765357 111.9647868  72.7286733
  31.1107949 113.0733471  73.2885555  29.8609107 111.5351092  70.5634635
  29.0476972 111.8345262  70.9699828  30.3568101 111.1406780  71.2809118
  35.4583318 111.9992916  79.3949529  35.8132706 112.2264389  80.2543995
  36.1055450 112.3311293  78.7726785  41.1881055 115.1211352  70.0998858
  41.0498954 115.3112948  69.1720048  40.8317274 115.8830735  70.5566910
  29.3523182 109.1069447  76.1795870  29.9922561 108.9658206  75.4818834
  28.5200712 108.8203961  75.8034472  41.2150435 117.1887879  75.1110130
  41.6486942 117.0963168  75.9593184  41.9282016 117.1645380  74.4730146
  26.3551798 109.0769772  70.9568857  26.6158615 109.9915105  70.8478018
  27.1768970 108.6094215  71.1065470  27.8276723 110.4907529  78.1267682
  28.4999777 110.2824891  77.4780331  27.0006510 110.2929615  77.6872914
  33.7302295 107.1169470  80.1433343  33.0830210 107.8159420  80.0497819
  34.5003311 107.5505614  80.5109591  30.8586521 113.4770092  78.3753799
  31.5686140 112.8363284  78.3340417  30.8155829 113.7282986  79.2979979
  29.5715455 110.4635310  80.1949438  29.0352812 110.0126048  80.8471034
  28.9832164 110.5981218  79.4519902  28.9817714 109.9223961  62.7575902
  28.1047180 109.8012762  62.3938148  29.4575467 109.1310039  62.5054790
  25.3054576 109.5991317  77.2802433  25.2212765 108.9916987  76.5452842
  24.4837283 110.0900336  77.2811929  35.4778290 108.0844881  72.6472628
  35.9746990 107.3314843  72.3273698  34.7065272 108.1209197  72.0815837
  43.3308048 113.7885246  74.2890919  43.3197924 114.6709962  73.9184852
  42.4625427 113.4356797  74.0945456  32.0613259 110.2262264  72.3744312
  31.6911047 109.6733304  73.0625218  32.5572352 109.6220397  71.8219312
  39.9480622 112.6833887  70.7561085  40.4141075 113.5161879  70.6821388
  40.3988123 112.2178869  71.4606344  37.9197285 105.0514474  74.7951986
  37.0060365 105.2818701  74.9634193  38.3490387 105.1352918  75.6466019
  37.6903744 113.2404366  77.2951880  37.0375194 113.4880274  76.6404333
  38.0684123 112.4268504  76.9614358  33.7391317 113.9824177  83.7817918
  33.0631954 113.8818307  84.4520293  34.5618951 113.8263391  84.2453915
  27.4578593 107.6366255  78.6197418  27.5219919 108.4981085  78.2074816
  27.3945713 107.0240256  77.8869777  26.9330865 109.7089387  82.2670453
  27.5602904 109.3266464  82.8807977  26.0758784 109.4903589  82.6326145
  27.2390655 109.5921813  74.1816356  26.5177241 110.2057780  74.0423829
  28.0283911 110.1279578  74.1033002  30.0416969 106.9276239  80.4557008
  30.5651370 107.1738536  81.2183317  29.8229302 107.7596274  80.0360145
  25.4384250 109.1979914  68.3228133  25.1096956 108.3177293  68.1403238
  25.7923620 109.1427583  69.2104522  28.5526073 109.4852884  68.6903610
  28.8922145 110.0138805  67.9682219  28.9998193 109.8233290  69.4662177
  31.2469514 107.8689934  78.1406678  30.9066334 107.0697747  78.5427358
  30.5408520 108.1691645  77.5683511  31.8985985 104.9539247  76.5934001
  32.7212055 104.4799725  76.4712892  32.1424049 105.7329731  77.0932688
  30.5394220 107.9827505  66.8896903  31.2602582 108.3608758  66.3860620
  29.9159524 108.7016382  66.9931881  34.6825343 108.6872654  67.8255235
  34.8988957 109.5697292  67.5244063  34.2019410 108.2958868  67.0960877
  29.4224564 111.6458367  74.4025980  29.2769145 111.9598670  75.2950261
  28.9449768 112.2643268  73.8496879  31.2820947 108.6360915  74.4506869
  31.2682516 107.7402009  74.1139167  31.9993375 108.6431579  75.0845155
  33.1347078 109.0698256  76.4959997  32.8764856 109.9915326  76.4944327
  32.6032118 108.6728690  77.1860461  30.6857843 107.5175296  69.7194440
  30.8073754 106.5891942  69.9185327  30.3959885 107.5313982  68.8072755
  33.5549033 105.2030206  72.8561159  33.5770730 105.2669539  71.9013139
  33.9717092 104.3634715  73.0501666  43.9332658 114.9385466  70.8940382
  44.3763804 114.1892791  70.4959505  43.0559168 114.9295602  70.5114114
  30.1698923 109.0307293  83.9284372  30.2187078 109.9069416  83.5462142
  30.7121437 108.4884686  83.3556015  40.7751643 116.4240883  80.5218238
  40.8249648 116.2590890  81.4633761  40.6665567 115.5568142  80.1316119
  38.0655406 112.4071811  81.8377545  38.9665268 112.2678276  81.5461542
  38.1403380 112.5726266  82.7775722  32.3998211 109.7838665  80.6830731
  31.5301520 110.0772232  80.4113319  32.6357691 110.3679110  81.4037994
  43.4765522 116.4090704  73.2862830  44.3112414 116.8480508  73.4500390
  43.6124651 115.9329357  72.4671075  40.5257028 113.9670439  79.2340317
  41.0011150 114.1598085  78.4259169  39.6022594 114.0229625  78.9883701
  35.1037245 106.0018282  78.1996151  35.6219189 106.7379309  77.8742640
  34.7492378 106.3082276  79.0342910  26.6836182 110.8622964  66.3157557
  25.9905427 110.9367319  65.6597593  26.4387934 110.0983307  66.8379074
  35.3549839 102.4218565  73.7197048  35.6351593 101.7541754  74.3457474
  36.1400446 102.6147661  73.2071712  39.2258697 110.8436199  77.4668623
  40.1776120 110.9434297  77.4880847  39.0562148 110.0514467  77.9766707
  37.2473077 107.9291782  77.6528024  36.6523009 108.2096795  76.9574512
  36.9622773 108.4185683  78.4244765  41.7046775 114.0642319  76.5810923
  41.6723095 113.1258319  76.7670606  42.3147399 114.1426355  75.8476747
  33.5430106 112.9338372  62.6238127  34.4889211 112.8044580  62.6926545
  33.1644351 112.1953033  63.1007555  41.8541264 110.8553362  76.6269206
  41.3380312 110.0711819  76.4399135  42.7381212 110.5272079  76.7915725
  39.5151990 104.5994378  72.5865018  39.3176812 104.2909466  73.4708350
  40.1251696 105.3256017  72.7162948  47.5223325 115.1258325  75.7216959
  48.2526713 114.8643614  76.2824663  46.9130270 114.3887047  75.7619027
  45.6038622 113.2666188  76.3191411  44.8771786 113.1322153  75.7107902
  45.1885909 113.5743017  77.1248129  31.7273023 110.8588348  62.5593012
  30.8204478 110.5621461  62.6355725  32.0049004 110.5618166  61.6927298
  33.3435089 105.4025238  68.7137253  32.5335817 105.0572323  69.0892499
  34.0319506 105.0932781  69.3024865  35.2725637 104.4803284  70.3361550
  35.8256676 104.8998738  70.9951573  35.5095723 103.5539033  70.3784506
  31.2958736 110.4690358  86.1164314  31.1955463 111.4184715  86.0476405
  31.0780278 110.1408597  85.2440384  30.4971808 107.7175283  62.7004991
  31.3590972 108.0430182  62.9600808  30.6822152 106.9306779  62.1878057
  38.6504444 106.5903810  69.8440214  38.0703113 107.2488614  69.4618266
  38.3840377 105.7681154  69.4327632  37.1008011 105.9908867  72.0461534
  37.6007789 106.1025402  71.2375853  37.7443618 105.6869920  72.6862343
  37.4329322 108.7503900  68.8996562  36.5455177 109.0353551  68.6816757
  37.8483311 108.5897663  68.0523839  40.7843858 108.7750421  72.6150902
  41.5604248 109.2646873  72.8875518  40.0591993 109.2008475  73.0722771
  43.2216417 109.4878040  73.6724842  43.8160908 109.2473776  72.9618150
  43.2943001 108.7685171  74.2998378  37.4070346 114.2658436  69.1146852
  37.3505547 114.7226987  68.2754485  37.9598688 113.5049121  68.9369695
  41.2175152 110.0548168  69.9396972  40.9612086 109.6544803  70.7705180
  40.5928020 110.7691962  69.8147111  45.5287490 112.7944241  72.4468263
  44.9687048 112.8637430  73.2199825  44.9230993 112.6185226  71.7267760
  38.1405125 115.4563217  66.4099382  38.0853929 115.2907489  65.4687826
  37.5151181 116.1639250  66.5661571  31.4501251 104.9571326  65.9884700
  31.4379921 105.9013166  66.1452971  32.3424673 104.7741472  65.6944161
  35.2653370 101.5514103  70.2430637  34.4985766 100.9972590  70.3887319
  35.6764075 101.6235972  71.1044788  27.2695131 107.8398899  84.3335818
  28.1326593 107.4835704  84.5439143  26.6960542 107.5012793  85.0211222
  48.4889422 117.9512157  72.2968066  48.7948298 117.0909520  72.0093981
  49.2142026 118.5429777  72.0967059  46.1943593 117.7510483  73.7197048
  46.4745347 117.0833672  74.3457474  46.9794200 117.9439578  73.2071712
  50.3545745 119.9286295  72.5865018  50.1570566 119.6201383  73.4708350
  50.9645451 120.6547934  72.7162948  46.1047125 116.8806021  70.2430637
  45.3379520 116.3264507  70.3887319  46.5157830 116.9527889  71.1044788
   3.7541893  30.6577167  59.7142022   3.0005602  30.0884565  59.5586026
   3.8889434  30.6239832  60.6612656   4.1648308  30.8152777  62.4462266
   4.8951697  30.5538065  63.0069969   3.5555254  30.0781499  62.4864334
   2.2463605  28.9560640  63.0436717   1.5196769  28.8216605  62.4353209
   1.8310892  29.2637469  63.8493435   2.1712473  28.4838693  59.1713570
   1.6112031  28.5531882  59.9445132   1.5655976  28.3079678  58.4513066
   3.7568491  45.1595207  61.8643526   4.3946901  45.0401954  61.1606866
   3.6389334  46.1076051  61.9231478   1.0477981  46.2657487  67.7591256
   1.0366622  45.8710285  66.8871760   1.2098620  45.5323559  68.3525027
   2.0044572  50.6329079  53.1016406   1.3532552  51.2183160  52.7150420
   2.7988935  51.1635274  53.1611444   3.3109760  42.8846661  58.9396734
   4.0972849  42.4666084  58.5887151   3.5748464  43.7892753  59.1078382
   3.4819837  48.3219511  53.6385391   2.8465670  48.3954138  54.3506295
   3.1517244  48.9113110  52.9604470   8.7118187  42.8221894  59.8429712
   9.4443359  42.2521111  60.0767542   7.9557543  42.4343494  60.2836218
   6.2343607  36.5343468  64.3024321   5.9026932  37.4038879  64.0785536
   5.6389221  36.2179752  64.9818351   2.7275127  48.7356014  63.7020234
   2.4275850  49.6381053  63.5936041   2.3826186  48.4688197  64.5541386
   6.1272271  41.2538554  61.3817671   5.2189148  41.1853963  61.0876432
   6.0759867  41.7310499  62.2099496   7.9933917  39.4554993  63.1595545
   7.3508297  39.7487526  62.5135339   7.4888846  39.3407913  63.9648742
   5.6474081  43.2018166  53.8481404   6.5591937  43.4345553  53.6729102
   5.1383728  43.7855210  53.2856483   3.9314848  47.6242794  67.4842697
   4.3398205  47.1825204  66.7397329   3.2092110  47.0495421  67.7376890
   4.2543663  48.1843984  61.2394986   3.6252526  48.3489698  60.5371053
   3.8669325  48.5985594  62.0105950   8.1332895  49.1198422  58.5939349
   7.4483933  49.4997323  58.0436383   8.2176744  49.7293749  59.3271297
   3.4345364  40.2219769  66.5157427   3.1906296  40.9761829  65.9791703
   3.7105294  40.6005116  67.3504674   5.3883827  46.7658381  65.1934693
   5.6000722  47.4090141  64.5169074   5.3413575  45.9320698  64.7256623
   2.9910056  39.3776202  62.0971265   2.1294535  39.6757455  62.3888003
   3.0172490  39.5946601  61.1652298   6.5029655  49.6430337  63.3657050
   7.3247098  49.2410524  63.0839732   6.4992057  49.5398571  64.3173166
  14.5935648  45.9869085  59.7142022  13.8399356  45.4176483  59.5586026
  14.7283189  45.9531750  60.6612656   1.6102752  51.4806054  69.5197083
   1.1666606  50.6942432  69.2017988   2.2719966  51.6685204  68.8540974
   3.7083990  51.7608854  67.5478484   3.6902465  52.5817735  67.0558754
   4.6303910  51.6362929  67.7728626   3.3326739  34.3813049  63.9195635
   2.9891009  35.2714691  63.8434745   3.7005702  34.1914707  63.0565220
   3.2977022  44.3721660  52.4268070   2.7823645  45.1426265  52.6656457
   3.0254330  43.6986797  53.0501131   2.4123280  36.7517704  61.8844868
   1.9088075  36.7147840  61.0712673   2.7053887  37.6610447  61.9441524
   8.2711296  47.1254015  54.3621243   7.4940739  46.7865174  53.9176405
   8.9502777  47.1306638  53.6876208   3.0863325  42.2448752  54.2527851
   2.7813461  42.5594902  55.1037994   4.0393767  42.3230172  54.2955184
   1.5309757  48.4038976  55.9020805   1.0031119  47.6691735  55.5894042
   1.0297260  49.1813652  55.6560773   6.5102603  46.5987996  61.0187851
   5.8526277  47.2887258  61.1067980   7.3143002  46.9884428  61.3621837
   5.3208062  44.9532369  59.0691793   5.8339944  45.5862361  59.5713503
   5.9709286  44.3533564  58.7035153   2.5830436  54.9316693  51.8252464
   1.9092135  55.2348390  52.4337422   2.9696258  55.7345774  51.4757921
   1.7988893  42.4281824  61.3150133   0.8811454  42.6496771  61.1571821
   2.2149036  42.5028135  60.4561841   2.5823940  43.8273240  56.4452814
   3.3295759  44.3394637  56.1359936   2.8515530  43.5057293  57.3057207
   6.0869858  49.9338370  57.1970935   5.6332185  49.0929280  57.2536126
   5.4563825  50.5699769  57.5345716   5.0302778  40.8630356  58.4271603
   4.2925534  40.3507743  58.7581845   5.2829551  40.4230738  57.6154880
   4.5302797  51.7714867  58.1320754   4.8225772  52.3319924  57.4133119
   5.0401418  52.0643428  58.8873913   5.1314405  33.6406608  59.0213372
   5.4373282  32.7803972  58.7339287   5.8567010  34.2324229  58.8212366
   2.9402056  43.0179286  66.1194836   3.2951444  43.2450759  66.9789302
   3.5874187  43.3497662  65.4972091   8.6699793  46.1397722  56.8244165
   8.5317692  46.3299318  55.8965354   8.3136012  46.9017104  57.2812216
   8.6969173  48.2074249  61.8355437   9.1305679  48.1149538  62.6838491
   9.4100754  48.1831749  61.1975453   2.4297068  51.8076343  63.3688537
   2.4834090  52.3767279  64.1366253   1.5611849  51.9778228  63.0042574
   9.5584722  48.2497949  64.3688322   9.7520612  49.1543760  64.6147597
   9.4585341  47.7905368  65.2026907   1.2121033  38.1355840  66.8678649
   0.5648948  38.8345789  66.7743126   1.9822049  38.5691984  67.2354897
   4.6199831  48.4004692  69.9429203   4.4685337  48.1715244  69.0259286
   4.6104511  49.3575293  69.9560548   1.3885167  45.9736605  64.9275469
   2.3177227  46.1247764  64.7544436   0.9676197  46.0620626  64.0724116
   1.7378714  49.3768872  60.0862844   1.4028547  49.3369642  60.9820494
   1.2382660  48.7113588  59.6133255   4.6737906  46.7224906  50.3599904
   4.0567077  45.9971734  50.2632957   4.2054394  47.4834266  50.0166978
   6.3292038  51.4323815  68.0205684   6.2704584  50.7483035  67.3536267
   6.7311556  52.1742805  67.5686310   6.3309445  49.3963398  66.2519664
   5.4436224  49.0589320  66.3746063   6.9007996  48.6646430  66.4888429
   2.9597028  39.1031250  59.3717934   3.4565728  38.3501213  59.0519004
   2.1884010  39.1395567  58.8061144  10.8126785  44.8071616  61.0136226
  10.8016662  45.6896331  60.6430159   9.9444165  44.4543167  60.8190763
   2.3209282  53.9551685  65.3739066   3.0337254  54.5899150  65.3014967
   1.8299311  54.0515551  64.5579068   4.0426809  47.8602938  56.9456358
   3.1083088  47.9804400  56.7761062   4.2203477  46.9575404  56.6816367
   7.4299360  43.7020257  57.4806392   7.8959812  44.5348248  57.4066694
   7.8806861  43.2365238  58.1851650   5.4975591  50.0464078  54.4792544
   5.7735435  49.9320673  55.3886418   4.6280090  49.6481563  54.4404717
   5.4016023  36.0700844  61.5197293   4.4879103  36.3005071  61.6879500
   5.8309124  36.1539288  62.3711325   5.1722481  44.2590736  64.0197187
   4.5193932  44.5066643  63.3649640   5.5502861  43.4454874  63.6859664
   2.1329655  54.2950429  58.1225357   2.3152050  53.4772085  58.5853110
   2.9562641  54.5118121  57.6850247   2.4671821  53.2218614  55.3840406
   2.9959587  52.7111069  54.7710568   2.7300040  52.9061144  56.2485939
   1.2210054  45.0010547  70.5063224   0.5450691  44.9004676  71.1765599
   2.0437688  44.8449761  70.9699221   4.8143712  51.1338732  70.5969495
   5.3583616  51.7468690  70.1024449   4.2330556  51.6918310  71.1136508
   3.1001225  54.2559450  61.7284522   2.9752364  53.4549190  61.2195468
   3.7580316  54.7505643  61.2398492   5.1636133  52.0568470  63.3564072
   4.2166468  51.9373821  63.2842399   5.5118906  51.1690968  63.4390334
   2.1682566  51.8521186  59.5568425   2.0207529  50.9237894  59.7375995
   2.9936060  51.8741277  59.0725500   5.7716688  52.6749745  60.6433297
   6.6963236  52.4692606  60.5057749   5.6031991  52.4266146  61.5522639
   2.1644081  39.7059024  54.5500542   2.3807695  40.5883662  54.2489370
   1.6838148  39.3145237  53.8206184   5.5612004  53.1935412  55.9995389
   5.7348882  52.6281835  55.2469241   6.0540896  53.9936307  55.8174879
   1.0367771  36.2216576  59.5806466   1.0589468  36.2855909  58.6258446
   1.4535830  35.3821084  59.7746972  11.4151395  45.9571835  57.6185689
  11.8582541  45.2079160  57.2204812  10.5377906  45.9481972  57.2359421
   6.5487177  52.5102177  53.0992287   7.2438081  53.1308869  53.3179602
   6.8910327  51.6597528  53.3744665   8.4478600  49.9601882  54.6279618
   8.9729924  50.2989155  53.9028938   8.3600952  49.0248898  54.4442753
   8.1372506  50.5934786  69.9330816   7.3468050  50.5758925  69.3935315
   7.9005861  51.1323080  70.6879852   8.2570381  47.4427252  67.2463544
   8.3068386  47.2777260  68.1879067   8.1484304  46.5754511  66.8561425
   5.5474143  43.4258180  68.5622851   6.4484006  43.2864645  68.2706849
   5.6222118  43.5912635  69.5021029   9.7588578  49.8624194  67.4905566
   9.4673386  50.2254174  68.3269027   9.1460709  49.1491202  67.3118898
  10.9584260  47.4277074  60.0108136  11.7931152  47.8666878  60.1745697
  11.0943389  46.9515727  59.1916382   8.0075766  44.9856808  65.9585624
   8.4829888  45.1784455  65.1504475   7.0841331  45.0415994  65.7129008
   2.5855983  37.0204652  64.9241458   3.1037926  37.7565679  64.5987946
   2.2311115  37.3268645  65.7588217   2.8368577  33.4404934  60.4442354
   3.1170331  32.7728124  61.0702781   3.6219184  33.6334030  59.9317018
   6.7077435  41.8622568  64.1913930   7.6594858  41.9620666  64.2126154
   6.5380886  41.0700837  64.7012014   4.7291815  38.9478152  64.3773330
   4.1341747  39.2283164  63.6819819   4.4441511  39.4372053  65.1490072
   3.8599305  52.9001079  53.1375963   4.7929978  52.8346640  53.3408839
   3.7722518  53.7357345  52.6790496   6.4887322  52.2166949  50.0979911
   6.4100953  51.8826812  50.9915669   7.3096988  52.7088717  50.0971383
   9.1865513  45.0828688  63.3056229   9.1541833  44.1444689  63.4915913
   9.7966137  45.1612725  62.5722054   1.0248844  43.9524741  49.3483433
   1.9707948  43.8230949  49.4171851   0.6463089  43.2139403  49.8252861
   9.3360001  41.8739732  63.3514512   8.8199050  41.0898188  63.1644441
  10.2199950  41.5458448  63.5161032   6.9970728  35.6180747  59.3110325
   6.7995549  35.3095835  60.1953657   7.6070434  36.3442386  59.4408255
  15.0042063  46.1444695  62.4462266  15.7345451  45.8829983  63.0069969
  14.3949008  45.4073417  62.4864334  13.0857360  44.2852558  63.0436717
  12.3590523  44.1508523  62.4353209  12.6704647  44.5929386  63.8493435
   0.9087536  48.0042487  70.8084090   1.8290546  48.1821086  71.0024137
   0.8737119  47.0598533  70.6563789   2.7544375  35.4989654  57.0606856
   3.3075414  35.9185107  57.7196880   2.9914461  34.5725402  57.1029812
   6.1323182  37.6090179  56.5685521   5.5521851  38.2674983  56.1863573
   5.8659115  36.7867524  56.1572938   4.5826748  37.0095237  58.7706841
   5.0826527  37.1211771  57.9621160   5.2262356  36.7056290  59.4107649
   4.9148060  39.7690270  55.6241869   4.0273915  40.0539920  55.4062064
   5.3302049  39.6084033  54.7769146   8.2662596  39.7936791  59.3396208
   9.0422986  40.2833243  59.6120825   7.5410730  40.2194845  59.7968078
  10.7035155  40.5064410  60.3970149  11.2979646  40.2660146  59.6863457
  10.7761738  39.7871540  61.0243685   4.0591273  49.5334944  49.7189889
   4.7627124  49.7384947  50.3347545   3.3353922  50.1011706  49.9838972
   4.8889084  45.2844806  55.8392159   4.8324285  45.7413357  54.9999792
   5.4417426  44.5235490  55.6615002   8.6993890  41.0734537  56.6642279
   8.4430824  40.6731173  57.4950486   8.0746758  41.7878331  56.5392418
  13.0106228  43.8130611  59.1713570  12.4505785  43.8823800  59.9445132
  12.4049731  43.6371595  58.4513066   5.9677971  49.9717473  51.7688349
   6.8023575  49.5398672  51.5865824   5.8062314  49.7999487  52.6965243
   5.6223863  46.4749587  53.1344688   5.5672667  46.3093858  52.1933132
   4.9969918  47.1825620  53.2906878   2.9369770  48.7798499  72.4598251
   3.8060930  48.9539151  72.0984886   2.4576522  49.5992915  72.3373980
   2.7472108  32.5700472  56.9675943   1.9804504  32.0158959  57.1132626
   3.1582813  32.6422341  57.8290095  14.5962246  60.4887125  61.8643526
  15.2340656  60.3693872  61.1606866  14.4783089  61.4367969  61.9231478
  11.4051952  60.4414553  61.8005050  11.0670464  60.3255617  60.9125585
  12.2741720  60.0405718  61.7806057   7.2638768  62.2950029  57.7901941
   6.7003633  62.2039966  57.0218229   7.1491163  61.4749934  58.2704434
  11.8871735  61.5949404  67.7591256  11.8760376  61.2002203  66.8871760
  12.0492375  60.8615477  68.3525027   4.8103200  63.7901221  60.6286162
   5.6024492  63.4492045  60.2132461   5.0499850  63.8996196  61.5488315
  12.8438327  65.9620997  53.1016406  12.1926306  66.5475077  52.7150420
  13.6382689  66.4927192  53.1611444   6.7693954  63.0510134  53.5003541
   7.5424830  62.5039121  53.3616416   7.1219353  63.9154383  53.7118002
   8.6078996  64.3786516  66.7070440   8.3168862  65.2832147  66.5917106
   9.2435981  64.4203044  67.4214509   9.5335203  61.7563365  63.2971800
  10.1298775  61.5319387  62.5828763   9.5910175  61.0148110  63.8997247
   9.1060232  59.2102800  51.1321991   9.3585752  58.6884321  50.3705454
   8.1684791  59.0468946  51.2348674  14.1503514  58.2138578  58.9396734
  14.9366604  57.7958002  58.5887151  14.4142219  59.1184671  59.1078382
  14.3213592  63.6511429  53.6385391  13.6859425  63.7246055  54.3506295
  13.9910998  64.2405028  52.9604470  19.5511942  58.1513812  59.8429712
  20.2837114  57.5813028  60.0767542  18.7951297  57.7635412  60.2836218
   8.8256520  61.1130906  53.3346365   8.7092778  60.4375809  54.0027450
   8.9358780  60.6263280  52.5178519  11.1688061  60.5741053  57.0393055
  10.8046269  60.0471674  57.7505976  12.0255177  60.1839522  56.8659540
  17.0737362  51.8635386  64.3024321  16.7420687  52.7330797  64.0785536
  16.4782975  51.5471670  64.9818351  10.8093548  55.6030953  52.0354403
  10.9767951  56.4711189  52.4024874  10.6190717  55.7658235  51.1115692
  13.5668881  64.0647932  63.7020234  13.2669605  64.9672971  63.5936041
  13.2219941  63.7980115  64.5541386   7.0181363  60.5161729  59.7356938
   6.0931859  60.3837943  59.9434630   7.2665776  61.2955948  60.2326880
  16.9666025  56.5830472  61.3817671  16.0582903  56.5145880  61.0876432
  16.9153621  57.0602417  62.2099496  10.7882769  58.0588610  53.0201070
  10.6682394  58.5045661  53.8586550  10.0935358  58.4073928  52.4614608
   4.3790174  60.1595002  60.5700727   4.5082555  60.4129481  61.4840139
   3.6987625  60.7522710  60.2505382   8.5489661  70.8292252  56.6691201
   8.4713691  71.7800077  56.7479682   7.9451305  70.4838125  57.3266128
  11.0406891  58.0020118  69.3252568  10.2640225  58.5614038  69.3155433
  11.6797454  58.4876900  69.8467438  18.8327672  54.7846910  63.1595545
  18.1902052  55.0779443  62.5135339  18.3282600  54.6699831  63.9648742
  16.4867835  58.5310084  53.8481404  17.3985691  58.7637470  53.6729102
  15.9777482  59.1147128  53.2856483   9.2953263  60.8105571  68.8870535
  10.0367948  61.3490615  68.6105359   8.5890249  61.4371860  69.0442087
  14.7708603  62.9534711  67.4842697  15.1791959  62.5117122  66.7397329
  14.0485864  62.3787339  67.7376890  11.1239673  57.8907318  64.8576254
  11.9700868  58.3146732  65.0010903  11.0638311  57.2340942  65.5514817
  15.0937418  63.5135902  61.2394986  14.4646280  63.6781616  60.5371053
  14.7063080  63.9277512  62.0105950  18.9726650  64.4490340  58.5939349
  18.2877688  64.8289241  58.0436383  19.0570499  65.0585666  59.3271297
  14.2739118  55.5511686  66.5157427  14.0300050  56.3053747  65.9791703
  14.5499049  55.9297034  67.3504674  16.2277581  62.0950299  65.1934693
  16.4394476  62.7382059  64.5169074  16.1807329  61.2612615  64.7256623
  13.8303810  54.7068119  62.0971265  12.9688289  55.0049373  62.3888003
  13.8566245  54.9238518  61.1652298  10.6465380  63.2510310  58.5045071
  11.1103725  63.5298013  57.7149693  10.3822178  62.3493755  58.3218161
   7.5389461  62.7981792  61.4424834   8.1090818  63.2269060  60.8042318
   8.1297572  62.5164376  62.1409020   9.5834266  59.3733462  55.3134636
  10.2858309  59.8254506  55.7808562   9.2514894  58.7317281  55.9414529
   8.0314627  57.9645219  69.6885845   7.4013288  58.6461500  69.9221242
   7.9250715  57.8528301  68.7438983   3.3259600  57.6317015  60.6151769
   2.5358654  57.8874544  60.1391880   3.8170847  58.4465353  60.7203810
  17.3423409  64.9722254  63.3657050  18.1640853  64.5702442  63.0839732
  17.3385812  64.8690488  64.3173166   5.2774345  57.9961594  57.5735246
   4.4805508  58.1080289  58.0918742   5.0499937  58.3348247  56.7076137
  11.1080013  64.5206298  65.5217761  11.1724445  64.9826705  66.3575933
  10.3990936  63.8903662  65.6500071   1.6097303  57.8847506  63.0466760
   1.8605341  58.7694515  63.3124336   2.1456851  57.7052107  62.2741852
  25.4329402  61.3161003  59.7142022  24.6793111  60.7468401  59.5586026
  25.5676943  61.2823667  60.6612656  10.8228030  66.1874405  55.3896741
  10.6873705  67.0325941  55.8181589  11.3637843  66.3893683  54.6262675
   7.3095370  52.2665985  72.0511096   6.9162315  51.7132183  72.7258740
   8.1261510  52.5776563  72.4417614   4.2757428  63.7049843  55.9624666
   4.7881948  64.4993093  56.1130231   4.9280140  63.0076134  55.8958268
   6.0852312  66.8215599  58.0447419   6.2618941  67.7433564  57.8568403
   6.8809146  66.5074019  58.4741799  10.2263331  53.6823864  69.6431353
  10.9673044  54.2831017  69.5635815  10.4581254  52.9401502  69.0849395
   5.3704669  58.8680231  67.9209583   5.2558184  57.9665488  68.2216681
   4.5149187  59.1143928  67.5694399  12.4496507  66.8097972  69.5197083
  12.0060361  66.0234350  69.2017988  13.1113720  66.9977122  68.8540974
   7.2083628  68.3393773  64.0457762   7.7591053  68.2110836  63.2734756
   6.3695104  68.6388662  63.6952654  14.5477745  67.0900771  67.5478484
  14.5296220  67.9109653  67.0558754  15.4697665  66.9654847  67.7728626
  11.0050799  64.6044901  68.3901993  11.5379136  63.8433189  68.1601301
  10.4764880  64.3118553  69.1326147  14.1720494  49.7104967  63.9195635
  13.8284763  50.6006609  63.8434745  14.5399456  49.5206625  63.0565220
   2.2406344  62.0338497  56.7384237   3.0781566  62.4435506  56.5217944
   2.4184612  61.0937940  56.7084431  14.1370776  59.7013578  52.4268070
  13.6217400  60.4718183  52.6656457  13.8648085  59.0278714  53.0501131
  11.7217888  54.5463279  57.4853308  10.8659484  54.1570129  57.3058947
  12.1344839  54.6255240  56.6253094  13.2517034  52.0809622  61.8844868
  12.7481830  52.0439757  61.0712673  13.5447641  52.9902365  61.9441524
   9.4959920  52.1648352  60.8911049  10.3612917  51.9691160  60.5316939
   9.5637429  51.9358704  61.8180406  19.1105051  62.4545933  54.3621243
  18.3334493  62.1157092  53.9176405  19.7896532  62.4598556  53.6876208
  13.9257080  57.5740670  54.2527851  13.6207215  57.8886819  55.1037994
  14.8787522  57.6522090  54.2955184  12.3703511  63.7330893  55.9020805
  11.8424873  62.9983653  55.5894042  11.8691014  64.5105570  55.6560773
  17.3496358  61.9279914  61.0187851  16.6920032  62.6179175  61.1067980
  18.1536757  62.3176346  61.3621837   7.1022239  54.3950560  58.2627416
   7.6765991  54.1725741  57.5300609   7.6893222  54.4639254  59.0156018
  16.1601816  60.2824287  59.0691793  16.6733698  60.9154278  59.5713503
  16.8103040  59.6825482  58.7035153   7.4291826  56.4255021  52.2823302
   6.5929138  56.7629707  52.6032576   7.2896596  56.2904001  51.3450439
   9.4044907  51.2691809  56.9902486   8.7509319  50.9540826  56.3659100
   9.3625381  50.6467549  57.7162309  10.5156112  61.5511104  48.9055778
   9.6083173  61.3200357  49.1046927  11.0127144  60.7548723  49.0929759
  13.4224191  70.2608611  51.8252464  12.7485889  70.5640308  52.4337422
  13.8090013  71.0637691  51.4757921  12.6382647  57.7573742  61.3150133
  11.7205209  57.9788689  61.1571821  13.0542791  57.8320053  60.4561841
  13.4217695  59.1565158  56.4452814  14.1689514  59.6686555  56.1359936
  13.6909284  58.8349211  57.3057207  11.6944345  61.6523699  53.4279768
  10.7855564  61.3682731  53.5252238  11.7239429  62.0722777  52.5683075
  16.9263613  65.2630288  57.1970935  16.4725940  64.4221198  57.2536126
  16.2957579  65.8991686  57.5345716  15.8696532  56.1922274  58.4271603
  15.1319289  55.6799660  58.7581845  16.1223306  55.7522656  57.6154880
  15.3696552  67.1006785  58.1320754  15.6619526  67.6611842  57.4133119
  15.8795172  67.3935346  58.8873913  15.9708159  48.9698526  59.0213372
  16.2767036  48.1095890  58.7339287  16.6960764  49.5616146  58.8212366
   2.2632515  59.3729213  57.4094970   2.0656915  58.7798573  56.6846037
   1.7079179  59.0681423  58.1270909  10.2429239  59.2652319  59.5289563
  10.2977849  58.3126156  59.4532040   9.4320441  59.4211758  60.0130862
  11.3920433  63.1932442  50.7667846  10.9539863  62.4768301  50.3073484
  12.1330874  63.4208557  50.2052938   8.1821599  57.8829379  57.2879942
   7.3689465  58.1823549  57.6945134   8.6780593  57.4885068  58.0054424
  10.3330177  67.8787136  59.2214207  10.2906356  68.1047982  58.2922739
  11.2492876  67.6450510  59.3700008  13.7795811  58.3471203  66.1194836
  14.1345198  58.5742677  66.9789302  14.4267942  58.6789580  65.4972091
  19.5093548  61.4689639  56.8244165  19.3711446  61.6591235  55.8965354
  19.1529767  62.2309022  57.2812216   7.6735674  55.4547734  62.9041177
   8.3135053  55.3136494  62.2064140   6.8413204  55.1682248  62.5279779
  19.5362927  63.5366166  61.8355437  19.9699434  63.4441455  62.6838491
  20.2494508  63.5123667  61.1975453   8.4495978  64.7550165  59.0176170
   9.2436576  64.2600485  58.8158744   7.7387670  64.2268028  58.6543875
  13.2690822  67.1368260  63.3688537  13.3227844  67.7059197  64.1366253
  12.4005604  67.3070145  63.0042574   4.7578741  58.8993247  55.0935922
   3.8276329  58.8377702  55.3105884   4.8536213  58.3769199  54.2972563
   4.6764290  55.4248059  57.6814164   4.9371108  56.3393393  57.5723324
   5.4981463  54.9572502  57.8310777   6.1489216  56.8385817  64.8512988
   6.8212269  56.6303179  64.2025637   5.3219002  56.6407903  64.4118221
  20.3978477  63.5789867  64.3688322  20.5914367  64.4835677  64.6147597
  20.2979095  63.1197286  65.2026907  12.0514788  53.4647758  66.8678649
  11.4042703  54.1637707  66.7743126  12.8215803  53.8983901  67.2354897
  15.4593586  63.7296610  69.9429203  15.3079092  63.5007161  69.0259286
  15.4498265  64.6867211  69.9560548  12.2278922  61.3028522  64.9275469
  13.1570982  61.4539682  64.7544436  11.8069952  61.3912543  64.0724116
  11.0267254  65.3279187  62.6974007  10.8878339  64.9597971  63.5699945
  10.2381850  65.8426826  62.5257964  11.6215406  70.4288283  54.0399543
  11.7967161  69.9576327  54.8545166  10.9348194  71.0554050  54.2680804
  12.5772469  64.7060790  60.0862844  12.2422301  64.6661560  60.9820494
  12.0776415  64.0405505  59.6133255   6.5516713  60.1128420  65.6115426
   6.4136511  59.3808658  66.2126965   7.4621636  60.0237320  65.3299613
  15.5131661  62.0516824  50.3599904  14.8960831  61.3263652  50.2632957
  15.0448149  62.8126184  50.0166978   9.1799014  59.8248379  65.0999105
   9.8898632  59.1841571  65.0585724   9.1368322  60.0761274  66.0225286
  17.1685792  66.7615732  68.0205684  17.1098338  66.0774952  67.3536267
  17.5705311  67.5034722  67.5686310   7.8927947  56.8113597  66.9194745
   7.3565304  56.3604335  67.5716341   7.3044656  56.9459506  66.1765209
   6.1876491  73.5777646  60.8139403   6.4273089  74.2096170  61.4918422
   5.3445687  73.2265686  61.1004763   7.3030206  56.2702248  49.4821208
   6.4259673  56.1491049  49.1183455   7.7787960  55.4788326  49.2300097
  17.1703199  64.7255316  66.2519664  16.2829978  64.3881238  66.3746063
  17.7401751  63.9938347  66.4888429   3.6267069  55.9469604  64.0047739
   3.5425257  55.3395274  63.2698149   2.8049775  56.4378623  64.0057236
  10.7004353  69.3856769  63.2180907  10.6274524  70.1911740  63.7300212
  10.2581746  69.5848734  62.3928929  10.4894132  68.6228539  56.7283729
   9.7061654  69.1650219  56.8221953  11.1886878  69.1402518  57.1277970
  13.7990783  54.4323168  59.3717934  14.2959482  53.6793130  59.0519004
  13.0277764  54.4687485  58.8061144  21.6520540  60.1363534  61.0136226
  21.6410416  61.0188249  60.6430159  20.7837919  59.7835084  60.8190763
  13.1603036  69.2843603  65.3739066  13.8731009  69.9191067  65.3014967
  12.6693065  69.3807469  64.5579068  14.8820563  63.1894855  56.9456358
  13.9476842  63.3096318  56.7761062  15.0597232  62.2867322  56.6816367
  10.3825751  56.5740551  59.0989619  10.0123539  56.0211591  59.7870524
  10.8784844  55.9698684  58.5464619  18.2693115  59.0312175  57.4806392
  18.7353567  59.8640166  57.4066694  18.7200615  58.5657156  58.1851650
   8.2114950  67.0338046  66.1944637   8.9124409  67.6674529  66.3474031
   7.7410065  67.3752778  65.4340276  16.3369346  65.3755996  54.4792544
  16.6129190  65.2612590  55.3886418  15.4673844  64.9773481  54.4404717
  16.2409777  51.3992761  61.5197293  15.3272857  51.6296988  61.6879500
  16.6702879  51.4831206  62.3711325  16.0116236  59.5882653  64.0197187
  15.3587686  59.8358561  63.3649640  16.3896616  58.7746792  63.6859664
  12.9723410  69.6242347  58.1225357  13.1545804  68.8064003  58.5853110
  13.7956396  69.8410039  57.6850247  13.3065575  68.5510532  55.3840406
  13.8353342  68.0402986  54.7710568  13.5693795  68.2353062  56.2485939
  12.0603809  60.3302465  70.5063224  11.3844446  60.2296594  71.1765599
  12.8831443  60.1741678  70.9699221   3.8082668  66.5674401  63.1275739
   4.3936105  65.8218089  63.2603644   3.6107506  66.8778358  64.0112403
   6.6621323  69.6025648  58.1438182   5.9931698  70.0871776  57.6602222
   6.5234193  69.8494869  59.0581560  10.8026592  71.6369392  64.7420840
  11.3544900  71.8001013  65.5069925  11.1432785  72.2273830  64.0700865
   5.7791085  53.9844542  65.3442725   5.8432411  54.8459373  64.9320123
   5.7158205  53.3718543  64.6115083   5.2543358  56.0567674  68.9915759
   5.8815396  55.6744752  69.6053283   4.3971276  55.8381876  69.3571452
  15.6537466  66.4630649  70.5969495  16.1977370  67.0760608  70.1024449
  15.0724311  67.0210228  71.1136508   2.0308900  57.8644103  54.9234114
   2.3262341  56.9554782  54.8701168   1.1296936  57.8431843  54.6015116
  13.9394979  69.5851367  61.7284522  13.8146118  68.7841107  61.2195468
  14.5974070  70.0797561  61.2398492   5.5603147  55.9400100  60.9061663
   4.8389733  56.5536068  60.7669136   6.3496403  56.4757865  60.8278309
  16.0029887  67.3860388  63.3564072  15.0560223  67.2665739  63.2842399
  16.3512661  66.4982886  63.4390334   8.3629461  53.2754526  67.1802314
   8.8863863  53.5216823  67.9428624   8.1441794  54.1074561  66.7605452
   3.7596742  55.5458201  55.0473439   3.4309448  54.6655580  54.8648545
   4.1136113  55.4905870  55.9349828  13.0076321  67.1813104  59.5568425
  12.8601283  66.2529811  59.7375995  13.8329814  67.2033195  59.0725500
   6.8738565  55.8331171  55.4148917   7.2134638  56.3617092  54.6927525
   7.3210685  56.1711577  56.1907483  16.6110443  68.0041663  60.6433297
  17.5356990  67.7984524  60.5057749  16.4425746  67.7558064  61.5522639
   9.5682006  54.2168222  64.8651985   9.2278826  53.4176035  65.2672665
   8.8621012  54.5169932  64.2928818  10.2198478  51.3017534  63.3179308
  11.0424547  50.8278012  63.1958198  10.4636541  52.0808018  63.8177994
   8.8606712  54.3305792  53.6142210   9.5815075  54.7087045  53.1105926
   8.2372016  55.0494669  53.7177188  13.0037835  55.0350941  54.5500542
  13.2201449  55.9175579  54.2489370  12.5231902  54.6437155  53.8206184
   7.7437056  57.9936655  61.1271287   7.5981637  58.3076958  62.0195568
   7.2662260  58.6121555  60.5742185   9.6033439  54.9839203  61.1752176
   9.5895008  54.0880296  60.8384474  10.3205867  54.9909866  61.8090462
  11.4559570  55.4176543  63.2205304  11.1977348  56.3393614  63.2189634
  10.9244610  55.0206977  63.9105768  16.4005759  68.5227330  55.9995389
  16.5742636  67.9573752  55.2469241  16.8934650  69.3228225  55.8174879
   2.2182719  60.5341999  64.0658948   1.6736187  61.3101807  64.1979222
   3.0962068  60.8812804  63.9078069   9.0070335  53.8653583  56.4439746
   9.1286246  52.9370229  56.6430634   8.7172378  53.8792269  55.5318062
  11.8761526  51.5508493  59.5806466  11.8983222  51.6147826  58.6258446
  12.2929585  50.7113002  59.7746972  22.2545150  61.2863753  57.6185689
  22.6976296  60.5371078  57.2204812  21.3771660  61.2773889  57.2359421
  17.3880931  67.8394094  53.0992287  18.0831836  68.4600787  53.3179602
  17.7304081  66.9889446  53.3744665   3.0048740  59.6611895  66.9589105
   2.2630476  59.8094531  67.5453735   2.6841485  59.9220161  66.0955854
  19.2872354  65.2893800  54.6279618  19.8123678  65.6281073  53.9028938
  19.1994707  64.3540815  54.4442753  10.9492403  69.2027874  66.7569495
  11.2579530  68.9577020  67.6292194  11.7467885  69.4074512  66.2688365
  10.9713015  71.3565783  58.9874871  10.5318005  70.8642162  59.6807728
  11.7221132  70.8138751  58.7466946   3.4505354  67.5477324  58.9899499
   4.2763374  67.2481096  58.6098143   3.0999406  66.7784946  59.4389288
   8.4186887  66.9003792  61.0597173   7.7966897  66.2374497  60.7599401
   9.0891754  66.9264924  60.3770821   1.6513959  65.4663651  59.9488433
   0.8145867  65.0385825  59.7672434   1.6237605  65.6596094  60.8859224
   8.4911415  55.3785580  70.6529679   8.5399570  56.2547703  70.2707448
   9.0333929  54.8362973  70.0801322  18.9766260  65.9226704  69.9330816
  18.1861804  65.9050842  69.3935315  18.7399615  66.4614997  70.6879852
  19.0964136  62.7719170  67.2463544  19.1462140  62.6069177  68.1879067
  18.9878059  61.9046429  66.8561425   7.9800394  65.4507716  54.5355633
   8.1288515  66.1343180  53.8822306   8.7866838  65.4312806  55.0505089
  16.3867898  58.7550098  68.5622851  17.2877761  58.6156563  68.2706849
  16.4615872  58.9204553  69.5021029  10.7210703  56.1316953  67.4076037
   9.8514013  56.4250519  67.1358626  10.9570184  56.7157398  68.1283301
  20.5982332  65.1916111  67.4905566  20.3067141  65.5546092  68.3269027
  19.9854464  64.4783120  67.3118898  21.7978015  62.7568991  60.0108136
  22.6324906  63.1958795  60.1745697  21.9337143  62.2807644  59.1916382
  18.8469521  60.3148726  65.9585624  19.3223642  60.5076372  65.1504475
  17.9235086  60.3707912  65.7129008   5.7353027  61.4772893  55.5416702
   5.4899069  60.5735223  55.7396912   5.9048942  61.4790044  54.5996180
  13.4249737  52.3496570  64.9241458  13.9431681  53.0857597  64.5987946
  13.0704870  52.6560563  65.7588217   5.0048675  57.2101251  53.0402864
   4.3117920  57.2845606  52.3842900   4.7600427  56.4461594  53.5624381
  13.6762331  48.7696852  60.4442354  13.9564085  48.1020041  61.0702781
  14.4612938  48.9625948  59.9317018  11.4795800  67.9455846  52.0067381
  10.9069767  68.5646033  51.5537853  12.0528593  68.4955208  52.5407303
  17.5471190  57.1914486  64.1913930  18.4988612  57.2912584  64.2126154
  17.3774640  56.3992755  64.7012014  15.5685569  54.2770069  64.3773330
  14.9735501  54.5575082  63.6819819  15.2835266  54.7663970  65.1490072
  14.6993060  68.2292996  53.1375963  15.6323733  68.1638558  53.3408839
  14.6116272  69.0649263  52.6790496  17.3281076  67.5458867  50.0979911
  17.2494708  67.2118730  50.9915669  18.1490743  68.0380634  50.0971383
  20.0259267  60.4120606  63.3056229  19.9935587  59.4736607  63.4915913
  20.6359891  60.4904643  62.5722054  11.8642598  59.2816659  49.3483433
  12.8101703  59.1522867  49.4171851  11.4856843  58.5431321  49.8252861
  20.1753756  57.2031649  63.3514512  19.6592804  56.4190106  63.1644441
  21.0593704  56.8750366  63.5161032  17.8364483  50.9472665  59.3110325
  17.6389304  50.6387753  60.1953657  18.4464188  51.6734304  59.4408255
  25.8435817  61.4736613  62.4462266  26.5739206  61.2121901  63.0069969
  25.2342763  60.7365335  62.4864334  23.9251114  59.6144475  63.0436717
  23.1984278  59.4800440  62.4353209  23.5098401  59.9221304  63.8493435
  11.7481291  63.3334405  70.8084090  12.6684300  63.5113004  71.0024137
  11.7130874  62.3890450  70.6563789  10.0485515  57.2066635  49.2838318
   9.1416971  56.9099748  49.3601032  10.3261496  56.9096453  48.4172605
   0.9663456  58.5272999  59.7337365   0.6466240  57.6738307  59.4411739
   0.4196884  58.7421577  60.4895332   4.7443363  61.2435440  63.4506871
   4.9629373  62.1752547  63.4694905   5.1569137  60.8843414  64.2361675
  11.6647581  51.7503525  55.4382560  10.8548309  51.4050610  55.8137806
  12.3531998  51.4411069  56.0270171  13.5938129  50.8281572  57.0606856
  14.1469168  51.2477025  57.7196880  13.8308216  49.9017320  57.1029812
   9.6171229  56.8168645  72.8409620   9.5167956  57.7663002  72.7721711
   9.3992771  56.4886884  71.9685690   8.8184300  54.0653570  49.4250298
   9.6803464  54.3908469  49.6846115   9.0034644  53.2785066  48.9123363
  16.9716936  52.9382097  56.5685521  16.3915606  53.5966901  56.1863573
  16.7052869  52.1159441  56.1572938  15.4220503  52.3387155  58.7706841
  15.9220281  52.4503689  57.9621160  16.0656111  52.0348207  59.4107649
   9.4802499  60.2465784  71.6574682   8.9969580  61.0466144  71.8638571
   9.5663438  60.2573729  70.7042126   2.7488458  62.0794164  59.5796501
   2.7259146  62.1781851  58.6278384   3.0589095  62.9259315  59.9013667
   5.4075836  64.1370319  63.6943116   6.3619090  64.1054261  63.6273047
   5.2088360  63.6760943  64.5093342   5.9975218  62.7071435  66.2613913
   6.8168107  63.2015514  66.2848751   6.2712026  61.7903403  66.2331481
  15.7541814  55.0982187  55.6241869  14.8667670  55.3831838  55.4062064
  16.1695804  54.9375951  54.7769146  19.1056351  55.1228708  59.3396208
  19.8816741  55.6125161  59.6120825  18.3804485  55.5486762  59.7968078
  21.5428909  55.8356327  60.3970149  22.1373400  55.5952063  59.6863457
  21.6155493  55.1163458  61.0243685   3.7626065  69.6789938  60.7113314
   3.6280533  68.9190339  60.1451312   3.3458127  70.4030838  60.2442103
  14.8985028  64.8626862  49.7189889  15.6020878  65.0676864  50.3347545
  14.1747677  65.4303624  49.9838972  15.7282838  60.6136723  55.8392159
  15.6718040  61.0705275  54.9999792  16.2811181  59.8527408  55.6615002
  19.5387644  56.4026455  56.6642279  19.2824578  56.0023091  57.4950486
  18.9140512  57.1170249  56.5392418  23.8499982  59.1422528  59.1713570
  23.2899540  59.2115718  59.9445132  23.2443485  58.9663513  58.4513066
   6.9195191  70.5759255  60.9231756   6.8027575  71.5204688  60.8210447
   6.0987637  70.2732817  61.3117555  16.8071725  65.3009391  51.7688349
  17.6417329  64.8690590  51.5865824  16.6456068  65.1291405  52.6965243
  16.4617618  61.8041504  53.1344688  16.4066421  61.6385776  52.1933132
  15.8363673  62.5117537  53.2906878   1.2510133  57.0409569  66.9606110
   1.8968996  56.5308523  67.4493336   1.0427284  57.7778250  67.5349536
  13.7763525  64.1090416  72.4598251  14.6454684  64.2831069  72.0984886
  13.2970276  64.9284833  72.3373980   9.7713743  51.3049613  52.7130007
   9.7592413  52.2491453  52.8698278  10.6637165  51.1219759  52.4189468
   7.9449705  71.2287517  64.1387685   8.8476952  71.2611128  64.4554180
   7.7187075  70.2987968  64.1534020   9.7003307  69.9818504  60.7997763
   8.7498938  69.9820365  60.6862136  10.0035793  69.2351238  60.2833798
  13.5865862  47.8992390  56.9675943  12.8198258  47.3450877  57.1132626
  13.9976567  47.9714259  57.8290095   5.5907624  54.1877186  71.0581125
   6.4539085  53.8313991  71.2684449   5.0173034  53.8491081  71.7456529
  25.4356000  75.8179042  61.8643526  26.0734410  75.6985790  61.1606866
  25.3176843  76.7659886  61.9231478  22.2445707  75.7706470  61.8005050
  21.9064218  75.6547535  60.9125585  23.1135475  75.3697635  61.7806057
  18.1032522  77.6241947  57.7901941  17.5397388  77.5331884  57.0218229
  17.9884917  76.8041851  58.2704434  22.7265490  76.9241322  67.7591256
  22.7154130  76.5294120  66.8871760  22.8886129  76.1907395  68.3525027
  15.6496954  79.1193138  60.6286162  16.4418246  78.7783963  60.2132461
  15.8893605  79.2288113  61.5488315  23.6832081  81.2912914  53.1016406
  23.0320061  81.8766995  52.7150420  24.4776444  81.8219109  53.1611444
  17.6087708  78.3802052  53.5003541  18.3818584  77.8331039  53.3616416
  17.9613107  79.2446301  53.7118002  19.4472751  79.7078434  66.7070440
  19.1562617  80.6124065  66.5917106  20.0829735  79.7494962  67.4214509
  20.3728958  77.0855282  63.2971800  20.9692530  76.8611305  62.5828763
  20.4303929  76.3440028  63.8997247  19.9453986  74.5394718  51.1321991
  20.1979507  74.0176239  50.3705454  19.0078545  74.3760863  51.2348674
  24.9897269  73.5430496  58.9396734  25.7760358  73.1249919  58.5887151
  25.2535973  74.4476588  59.1078382  25.1607346  78.9803346  53.6385391
  24.5253179  79.0537973  54.3506295  24.8304753  79.5696945  52.9604470
  30.3905696  73.4805729  59.8429712  31.1230868  72.9104946  60.0767542
  29.6345052  73.0927330  60.2836218  19.6650275  76.4422824  53.3346365
  19.5486533  75.7667727  54.0027450  19.7752535  75.9555198  52.5178519
  22.0081816  75.9032971  57.0393055  21.6440023  75.3763592  57.7505976
  22.8648932  75.5131440  56.8659540  27.9131116  67.1927303  64.3024321
  27.5814441  68.0622714  64.0785536  27.3176730  66.8763587  64.9818351
  21.6487303  70.9322870  52.0354403  21.8161705  71.8003107  52.4024874
  21.4584472  71.0950152  51.1115692  24.4062636  79.3939849  63.7020234
  24.1063359  80.2964888  63.5936041  24.0613695  79.1272033  64.5541386
  17.8575117  75.8453646  59.7356938  16.9325614  75.7129860  59.9434630
  18.1059531  76.6247865  60.2326880  27.8059780  71.9122390  61.3817671
  26.8976657  71.8437798  61.0876432  27.7547376  72.3894335  62.2099496
  21.6276524  73.3880528  53.0201070  21.5076149  73.8337579  53.8586550
  20.9329112  73.7365846  52.4614608  15.2183928  75.4886920  60.5700727
  15.3476310  75.7421399  61.4840139  14.5381380  76.0814628  60.2505382
  19.3883416  86.1584170  56.6691201  19.3107445  87.1091995  56.7479682
  18.7845059  85.8130042  57.3266128  21.8800646  73.3312035  69.3252568
  21.1033980  73.8905955  69.3155433  22.5191209  73.8168818  69.8467438
  29.6721426  70.1138828  63.1595545  29.0295806  70.4071361  62.5135339
  29.1676355  69.9991748  63.9648742  27.3261590  73.8602001  53.8481404
  28.2379446  74.0929388  53.6729102  26.8171237  74.4439045  53.2856483
  20.1347018  76.1397489  68.8870535  20.8761702  76.6782533  68.6105359
  19.4284003  76.7663777  69.0442087  25.6102357  78.2826629  67.4842697
  26.0185714  77.8409040  66.7397329  24.8879619  77.7079257  67.7376890
  21.9633428  73.2199236  64.8576254  22.8094623  73.6438649  65.0010903
  21.9032065  72.5632860  65.5514817  25.9331172  78.8427820  61.2394986
  25.3040035  79.0073534  60.5371053  25.5456834  79.2569429  62.0105950
  29.8120404  79.7782257  58.5939349  29.1271442  80.1581159  58.0436383
  29.8964253  80.3877584  59.3271297  25.1132873  70.8803604  66.5157427
  24.8693805  71.6345665  65.9791703  25.3892803  71.2588952  67.3504674
  27.0671336  77.4242217  65.1934693  27.2788231  78.0673976  64.5169074
  27.0201084  76.5904533  64.7256623  24.6697565  70.0360037  62.0971265
  23.8082044  70.3341291  62.3888003  24.6959999  70.2530436  61.1652298
  21.4859134  78.5802228  58.5045071  21.9497480  78.8589931  57.7149693
  21.2215932  77.6785672  58.3218161  18.3783215  78.1273709  61.4424834
  18.9484572  78.5560978  60.8042318  18.9691327  77.8456294  62.1409020
  20.4228020  74.7025380  55.3134636  21.1252063  75.1546424  55.7808562
  20.0908649  74.0609199  55.9414529  18.8708382  73.2937137  69.6885845
  18.2407042  73.9753418  69.9221242  18.7644469  73.1820218  68.7438983
  14.1653354  72.9608933  60.6151769  13.3752408  73.2166461  60.1391880
  14.6564601  73.7757271  60.7203810  28.1817164  80.3014172  63.3657050
  29.0034607  79.8994359  63.0839732  28.1779566  80.1982406  64.3173166
  16.1168099  73.3253512  57.5735246  15.3199263  73.4372206  58.0918742
  15.8893692  73.6640164  56.7076137  21.9473767  79.8498215  65.5217761
  22.0118200  80.3118622  66.3575933  21.2384691  79.2195580  65.6500071
  12.4491057  73.2139423  63.0466760  12.6999095  74.0986433  63.3124336
  12.9850605  73.0344025  62.2741852  36.2723157  76.6452920  59.7142022
  35.5186865  76.0760318  59.5586026  36.4070698  76.6115585  60.6612656
  21.6621785  81.5166323  55.3896741  21.5267459  82.3617858  55.8181589
  22.2031597  81.7185600  54.6262675  18.1489124  67.5957903  72.0511096
  17.7556070  67.0424101  72.7258740  18.9655265  67.9068481  72.4417614
  15.1151182  79.0341761  55.9624666  15.6275703  79.8285011  56.1130231
  15.7673895  78.3368051  55.8958268  16.9246067  82.1507517  58.0447419
  17.1012695  83.0725482  57.8568403  17.7202900  81.8365936  58.4741799
  21.0657085  69.0115782  69.6431353  21.8066799  69.6122935  69.5635815
  21.2975008  68.2693419  69.0849395  16.2098423  74.1972149  67.9209583
  16.0951938  73.2957406  68.2216681  15.3542941  74.4435846  67.5694399
  23.2890261  82.1389889  69.5197083  22.8454115  81.3526268  69.2017988
  23.9507475  82.3269040  68.8540974  18.0477382  83.6685691  64.0457762
  18.5984807  83.5402754  63.2734756  17.2088858  83.9680580  63.6952654
  25.3871499  82.4192689  67.5478484  25.3689974  83.2401570  67.0558754
  26.3091419  82.2946764  67.7728626  21.8444553  79.9336819  68.3901993
  22.3772890  79.1725107  68.1601301  21.3158634  79.6410470  69.1326147
  25.0114248  65.0396885  63.9195635  24.6678518  65.9298526  63.8434745
  25.3793211  64.8498542  63.0565220  13.0800099  77.3630415  56.7384237
  13.9175321  77.7727423  56.5217944  13.2578367  76.4229857  56.7084431
  24.9764531  75.0305496  52.4268070  24.4611154  75.8010100  52.6656457
  24.7041839  74.3570632  53.0501131  22.5611642  69.8755196  57.4853308
  21.7053238  69.4862047  57.3058947  22.9738594  69.9547157  56.6253094
  24.0910789  67.4101540  61.8844868  23.5875584  67.3731675  61.0712673
  24.3841395  68.3194282  61.9441524  20.3353675  67.4940269  60.8911049
  21.2006671  67.2983078  60.5316939  20.4031183  67.2650621  61.8180406
  29.9498805  77.7837850  54.3621243  29.1728248  77.4449010  53.9176405
  30.6290286  77.7890474  53.6876208  24.7650834  72.9032588  54.2527851
  24.4600970  73.2178737  55.1037994  25.7181276  72.9814008  54.2955184
  23.2097266  79.0622811  55.9020805  22.6818628  78.3275571  55.5894042
  22.7084769  79.8397487  55.6560773  28.1890112  77.2571832  61.0187851
  27.5313786  77.9471093  61.1067980  28.9930511  77.6468264  61.3621837
  17.9415994  69.7242477  58.2627416  18.5159745  69.5017659  57.5300609
  18.5286976  69.7931172  59.0156018  26.9995571  75.6116204  59.0691793
  27.5127453  76.2446196  59.5713503  27.6496795  75.0117400  58.7035153
  18.2685581  71.7546938  52.2823302  17.4322893  72.0921625  52.6032576
  18.1290350  71.6195918  51.3450439  20.2438661  66.5983726  56.9902486
  19.5903074  66.2832743  56.3659100  20.2019135  65.9759467  57.7162309
  21.3549866  76.8803021  48.9055778  20.4476928  76.6492275  49.1046927
  21.8520898  76.0840641  49.0929759  24.2617945  85.5900529  51.8252464
  23.5879644  85.8932225  52.4337422  24.6483767  86.3929609  51.4757921
  23.4776402  73.0865660  61.3150133  22.5598963  73.3080607  61.1571821
  23.8936545  73.1611970  60.4561841  24.2611449  74.4857076  56.4452814
  25.0083268  74.9978473  56.1359936  24.5303039  74.1641128  57.3057207
  22.5338100  76.9815616  53.4279768  21.6249319  76.6974649  53.5252238
  22.5633183  77.4014695  52.5683075  27.7657367  80.5922206  57.1970935
  27.3119694  79.7513116  57.2536126  27.1351334  81.2283604  57.5345716
  26.7090287  71.5214192  58.4271603  25.9713043  71.0091578  58.7581845
  26.9617060  71.0814573  57.6154880  26.2090306  82.4298702  58.1320754
  26.5013281  82.9903760  57.4133119  26.7188927  82.7227263  58.8873913
  26.8101914  64.2990444  59.0213372  27.1160791  63.4387807  58.7339287
  27.5354519  64.8908064  58.8212366  13.1026270  74.7021130  57.4094970
  12.9050670  74.1090491  56.6846037  12.5472934  74.3973341  58.1270909
  21.0822994  74.5944237  59.5289563  21.1371603  73.6418073  59.4532040
  20.2714196  74.7503676  60.0130862  22.2314187  78.5224360  50.7667846
  21.7933617  77.8060219  50.3073484  22.9724628  78.7500475  50.2052938
  19.0215354  73.2121297  57.2879942  18.2083219  73.5115467  57.6945134
  19.5174348  72.8176985  58.0054424  21.1723931  83.2079054  59.2214207
  21.1300110  83.4339900  58.2922739  22.0886630  82.9742428  59.3700008
  24.6189565  73.6763121  66.1194836  24.9738953  73.9034594  66.9789302
  25.2661696  74.0081498  65.4972091  30.3487302  76.7981557  56.8244165
  30.2105201  76.9883153  55.8965354  29.9923521  77.5600940  57.2812216
  18.5129428  70.7839652  62.9041177  19.1528808  70.6428411  62.2064140
  17.6806959  70.4974165  62.5279779  30.3756682  78.8658084  61.8355437
  30.8093188  78.7733373  62.6838491  31.0888262  78.8415584  61.1975453
  19.2889732  80.0842083  59.0176170  20.0830331  79.5892403  58.8158744
  18.5781425  79.5559946  58.6543875  24.1084577  82.4660178  63.3688537
  24.1621599  83.0351114  64.1366253  23.2399358  82.6362063  63.0042574
  15.5972496  74.2285164  55.0935922  14.6670084  74.1669620  55.3105884
  15.6929968  73.7061117  54.2972563  15.5158045  70.7539977  57.6814164
  15.7764862  71.6685310  57.5723324  16.3375217  70.2864420  57.8310777
  16.9882970  72.1677734  64.8512988  17.6606023  71.9595096  64.2025637
  16.1612757  71.9699820  64.4118221  31.2372231  78.9081785  64.3688322
  31.4308121  79.8127595  64.6147597  31.1372850  78.4489204  65.2026907
  22.8908542  68.7939675  66.8678649  22.2436457  69.4929625  66.7743126
  23.6609557  69.2275819  67.2354897  26.2987340  79.0588527  69.9429203
  26.1472846  78.8299079  69.0259286  26.2892019  80.0159129  69.9560548
  23.0672676  76.6320440  64.9275469  23.9964736  76.7831600  64.7544436
  22.6463706  76.7204461  64.0724116  21.8661008  80.6571105  62.6974007
  21.7272094  80.2889889  63.5699945  21.0775604  81.1718744  62.5257964
  22.4609160  85.7580201  54.0399543  22.6360916  85.2868244  54.8545166
  21.7741948  86.3845967  54.2680804  23.4166223  80.0352707  60.0862844
  23.0816056  79.9953477  60.9820494  22.9170169  79.3697423  59.6133255
  17.3910467  75.4420337  65.6115426  17.2530265  74.7100576  66.2126965
  18.3015391  75.3529237  65.3299613  26.3525415  77.3808742  50.3599904
  25.7354586  76.6555570  50.2632957  25.8841903  78.1418102  50.0166978
  20.0192768  75.1540297  65.0999105  20.7292387  74.5133489  65.0585724
  19.9762076  75.4053191  66.0225286  28.0079547  82.0907650  68.0205684
  27.9492093  81.4066870  67.3536267  28.4099065  82.8326640  67.5686310
  18.7321702  72.1405514  66.9194745  18.1959059  71.6896253  67.5716341
  18.1438410  72.2751423  66.1765209  17.0270245  88.9069564  60.8139403
  17.2666844  89.5388088  61.4918422  16.1839442  88.5557604  61.1004763
  18.1423961  71.5994166  49.4821208  17.2653427  71.4782967  49.1183455
  18.6181714  70.8080244  49.2300097  28.0096954  80.0547234  66.2519664
  27.1223733  79.7173156  66.3746063  28.5795505  79.3230265  66.4888429
   9.6626101  76.3871326  59.5762715  10.3497141  76.0733056  58.9883731
   9.5074230  77.2912690  59.3029967  14.4660823  71.2761522  64.0047739
  14.3819012  70.6687192  63.2698149  13.6443530  71.7670540  64.0057236
  21.5398107  84.7148686  63.2180907  21.4668279  85.5203658  63.7300212
  21.0975500  84.9140652  62.3928929  21.3287887  83.9520456  56.7283729
  20.5455409  84.4942136  56.8221953  22.0280632  84.4694436  57.1277970
  24.6384537  69.7615086  59.3717934  25.1353237  69.0085048  59.0519004
  23.8671519  69.7979402  58.8061144  32.4914294  75.4655451  61.0136226
  32.4804171  76.3480167  60.6430159  31.6231674  75.1127002  60.8190763
  23.9996791  84.6135520  65.3739066  24.7124763  85.2482985  65.3014967
  23.5086819  84.7099386  64.5579068  25.7214318  78.5186773  56.9456358
  24.7870596  78.6388235  56.7761062  25.8990986  77.6159240  56.6816367
  21.2219506  71.9032469  59.0989619  20.8517293  71.3503509  59.7870524
  21.7178598  71.2990602  58.5464619  29.1086869  74.3604092  57.4806392
  29.5747321  75.1932084  57.4066694  29.5594370  73.8949074  58.1851650
  19.0508704  82.3629964  66.1944637  19.7518164  82.9966447  66.3474031
  18.5803819  82.7044695  65.4340276  27.1763100  80.7047913  54.4792544
  27.4522944  80.5904508  55.3886418  26.3067599  80.3065398  54.4404717
  27.0803532  66.7284679  61.5197293  26.1666612  66.9588906  61.6879500
  27.5096633  66.8123123  62.3711325  26.8509990  74.9174571  64.0197187
  26.1981441  75.1650479  63.3649640  27.2290370  74.1038709  63.6859664
  23.8117164  84.9534264  58.1225357  23.9939559  84.1355920  58.5853110
  24.6350150  85.1701957  57.6850247  24.1459330  83.8802449  55.3840406
  24.6747096  83.3694904  54.7710568  24.4087549  83.5644980  56.2485939
  22.8997563  75.6594382  70.5063224  22.2238200  75.5588512  71.1765599
  23.7225197  75.5033596  70.9699221  14.6476422  81.8966319  63.1275739
  15.2329859  81.1510007  63.2603644  14.4501261  82.2070275  64.0112403
  17.5015078  84.9317566  58.1438182  16.8325453  85.4163694  57.6602222
  17.3627947  85.1786787  59.0581560   9.2394077  74.4671919  61.8480183
   9.2778177  73.9335510  62.6417301   8.7334370  73.9407124  61.2291160
  21.6420346  86.9661310  64.7420840  22.1938654  87.1292931  65.5069925
  21.9826540  87.5565747  64.0700865  16.6184839  69.3136459  65.3442725
  16.6826166  70.1751290  64.9320123  16.5551960  68.7010461  64.6115083
  16.0937112  71.3859592  68.9915759  16.7209151  71.0036669  69.6053283
  15.2365031  71.1673794  69.3571452  26.4931221  81.7922567  70.5969495
  27.0371125  82.4052525  70.1024449  25.9118065  82.3502146  71.1136508
  12.8702655  73.1936021  54.9234114  13.1656096  72.2846700  54.8701168
  11.9690691  73.1723761  54.6015116  24.7788734  84.9143285  61.7284522
  24.6539873  84.1133025  61.2195468  25.4367825  85.4089479  61.2398492
  16.3996902  71.2692018  60.9061663  15.6783488  71.8827985  60.7669136
  17.1890158  71.8049782  60.8278309  26.8423642  82.7152305  63.3564072
  25.8953977  82.5957656  63.2842399  27.1906415  81.8274803  63.4390334
  19.2023215  68.6046444  67.1802314  19.7257617  68.8508741  67.9428624
  18.9835549  69.4366479  66.7605452  14.5990496  70.8750119  55.0473439
  14.2703203  69.9947498  54.8648545  14.9529867  70.8197787  55.9349828
  23.8470075  82.5105021  59.5568425  23.6995038  81.5821729  59.7375995
  24.6723569  82.5325112  59.0725500  17.7132320  71.1623089  55.4148917
  18.0528392  71.6909010  54.6927525  18.1604440  71.5003495  56.1907483
  27.4504197  83.3333580  60.6433297  28.3750745  83.1276442  60.5057749
  27.2819500  83.0849981  61.5522639  20.4075760  69.5460139  64.8651985
  20.0672581  68.7467952  65.2672665  19.7014767  69.8461850  64.2928818
  21.0592232  66.6309452  63.3179308  21.8818301  66.1569930  63.1958198
  21.3030296  67.4099935  63.8177994  19.7000467  69.6597710  53.6142210
  20.4208829  70.0378963  53.1105926  19.0765771  70.3786587  53.7177188
  23.8431590  70.3642859  54.5500542  24.0595204  71.2467497  54.2489370
  23.3625657  69.9729073  53.8206184  18.5830811  73.3228572  61.1271287
  18.4375392  73.6368875  62.0195568  18.1056015  73.9413473  60.5742185
  20.4427194  70.3131120  61.1752176  20.4288763  69.4172214  60.8384474
  21.1599622  70.3201784  61.8090462  22.2953325  70.7468461  63.2205304
  22.0371102  71.6685531  63.2189634  21.7638365  70.3498895  63.9105768
  27.2399513  83.8519248  55.9995389  27.4136391  83.2865670  55.2469241
  27.7328405  84.6520143  55.8174879  13.0576473  75.8633917  64.0658948
  12.5129941  76.6393725  64.1979222  13.9355823  76.2104721  63.9078069
  19.8464090  69.1945501  56.4439746  19.9680001  68.2662147  56.6430634
  19.5566132  69.2084187  55.5318062  22.7155280  66.8800411  59.5806466
  22.7376977  66.9439744  58.6258446  23.1323339  66.0404920  59.7746972
  33.0938904  76.6155671  57.6185689  33.5370050  75.8662996  57.2204812
  32.2165415  76.6065807  57.2359421  28.2274686  83.1686012  53.0992287
  28.9225590  83.7892705  53.3179602  28.5697836  82.3181363  53.3744665
  13.8442495  74.9903813  66.9589105  13.1024231  75.1386448  67.5453735
  13.5235239  75.2512079  66.0955854  30.1266109  80.6185718  54.6279618
  30.6517433  80.9572990  53.9028938  30.0388461  79.6832733  54.4442753
  21.7886158  84.5319791  66.7569495  22.0973284  84.2868938  67.6292194
  22.5861640  84.7366430  66.2688365  21.8106770  86.6857701  58.9874871
  21.3711760  86.1934080  59.6807728  22.5614887  86.1430669  58.7466946
  14.2899109  82.8769242  58.9899499  15.1157129  82.5773014  58.6098143
  13.9393161  82.1076864  59.4389288  19.2580642  82.2295710  61.0597173
  18.6360651  81.5666415  60.7599401  19.9285509  82.2556842  60.3770821
  12.4907714  80.7955568  59.9488433  11.6539622  80.3677743  59.7672434
  12.4631359  80.9888012  60.8859224  19.3305169  70.7077498  70.6529679
  19.3793325  71.5839621  70.2707448  19.8727683  70.1654891  70.0801322
  29.8160015  81.2518621  69.9330816  29.0255559  81.2342760  69.3935315
  29.5793370  81.7906915  70.6879852  29.9357890  78.1011088  67.2463544
  29.9855895  77.9361095  68.1879067  29.8271813  77.2338347  66.8561425
  18.8194149  80.7799633  54.5355633  18.9682269  81.4635098  53.8822306
  19.6260592  80.7604723  55.0505089  27.2261652  74.0842016  68.5622851
  28.1271515  73.9448480  68.2706849  27.3009627  74.2496470  69.5021029
  21.5604458  71.4608870  67.4076037  20.6907767  71.7542436  67.1358626
  21.7963938  72.0449315  68.1283301  31.4376087  80.5208029  67.4905566
  31.1460895  80.8838010  68.3269027  30.8248218  79.8075037  67.3118898
  32.6371769  78.0860909  60.0108136  33.4718661  78.5250713  60.1745697
  32.7730898  77.6099562  59.1916382  29.6863275  75.6440644  65.9585624
  30.1617397  75.8368290  65.1504475  28.7628840  75.6999830  65.7129008
  16.5746782  76.8064811  55.5416702  16.3292824  75.9027141  55.7396912
  16.7442696  76.8081961  54.5996180  24.2643492  67.6788487  64.9241458
  24.7825435  68.4149514  64.5987946  23.9098624  67.9852481  65.7588217
  15.8442429  72.5393169  53.0402864  15.1511674  72.6137523  52.3842900
  15.5994181  71.7753512  53.5624381  24.5156086  64.0988770  60.4442354
  24.7957839  63.4311959  61.0702781  25.3006693  64.2917865  59.9317018
  22.3189554  83.2747764  52.0067381  21.7463521  83.8937951  51.5537853
  22.8922348  83.8247125  52.5407303  28.3864944  72.5206404  64.1913930
  29.3382367  72.6204502  64.2126154  28.2168394  71.7284672  64.7012014
  26.4079324  69.6061987  64.3773330  25.8129256  69.8867000  63.6819819
  26.1229020  70.0955888  65.1490072  25.5386814  83.5584914  53.1375963
  26.4717487  83.4930476  53.3408839  25.4510027  84.3941181  52.6790496
  28.1674831  82.8750784  50.0979911  28.0888462  82.5410648  50.9915669
  28.9884497  83.3672552  50.0971383  30.8653022  75.7412524  63.3056229
  30.8329342  74.8028524  63.4915913  31.4753646  75.8196560  62.5722054
  22.7036353  74.6108577  49.3483433  23.6495457  74.4814785  49.4171851
  22.3250598  73.8723238  49.8252861  31.0147510  72.5323567  63.3514512
  30.4986559  71.7482024  63.1644441  31.8987459  72.2042284  63.5161032
  28.6758237  66.2764583  59.3110325  28.4783058  65.9679671  60.1953657
  29.2857943  67.0026221  59.4408255  36.6829572  76.8028530  62.4462266
  37.4132960  76.5413818  63.0069969  36.0736517  76.0657252  62.4864334
  34.7644869  74.9436393  63.0436717  34.0378032  74.8092358  62.4353209
  34.3492156  75.2513222  63.8493435  22.5875045  78.6626323  70.8084090
  23.5078055  78.8404922  71.0024137  22.5524628  77.7182368  70.6563789
  20.8879270  72.5358553  49.2838318  19.9810725  72.2391666  49.3601032
  21.1655251  72.2388371  48.4172605  11.8057210  73.8564916  59.7337365
  11.4859995  73.0030224  59.4411739  11.2590638  74.0713494  60.4895332
  15.5837118  76.5727357  63.4506871  15.8023128  77.5044465  63.4694905
  15.9962892  76.2135332  64.2361675  22.5041336  67.0795443  55.4382560
  21.6942064  66.7342528  55.8137806  23.1925753  66.7702986  56.0270171
  24.4331884  66.1573489  57.0606856  24.9862922  66.5768943  57.7196880
  24.6701970  65.2309238  57.1029812  20.4564983  72.1460563  72.8409620
  20.3561710  73.0954920  72.7721711  20.2386525  71.8178802  71.9685690
  19.6578054  69.3945488  49.4250298  20.5197218  69.7200386  49.6846115
  19.8428399  68.6076984  48.9123363  11.6745470  77.4767828  61.7030486
  10.9808942  77.0621781  61.1900441  12.4218461  77.5188364  61.1063905
  27.8110691  68.2674015  56.5685521  27.2309360  68.9258819  56.1863573
  27.5446624  67.4451359  56.1572938  26.2614257  67.6679072  58.7706841
  26.7614036  67.7795607  57.9621160  26.9049865  67.3640125  59.4107649
  20.3196253  75.5757702  71.6574682  19.8363335  76.3758062  71.8638571
  20.4057192  75.5865647  70.7042126  13.5882213  77.4086082  59.5796501
  13.5652901  77.5073769  58.6278384  13.8982849  78.2551232  59.9013667
  16.2469591  79.4662237  63.6943116  17.2012844  79.4346179  63.6273047
  16.0482114  79.0052860  64.5093342  16.8368973  78.0363353  66.2613913
  17.6561862  78.5307431  66.2848751  17.1105780  77.1195321  66.2331481
  26.5935569  70.4274105  55.6241869  25.7061424  70.7123756  55.4062064
  27.0089558  70.2667868  54.7769146  29.9450105  70.4520626  59.3396208
  30.7210495  70.9417078  59.6120825  29.2198239  70.8778680  59.7968078
  32.3822664  71.1648245  60.3970149  32.9767155  70.9243981  59.6863457
  32.4549247  70.4455376  61.0243685  14.6019819  85.0081856  60.7113314
  14.4674287  84.2482257  60.1451312  14.1851882  85.7322756  60.2442103
  25.7378782  80.1918780  49.7189889  26.4414633  80.3968782  50.3347545
  25.0141431  80.7595542  49.9838972  26.5676593  75.9428641  55.8392159
  26.5111794  76.3997192  54.9999792  27.1204935  75.1819325  55.6615002
  30.3781399  71.7318373  56.6642279  30.1218333  71.3315008  57.4950486
  29.7534267  72.4462167  56.5392418  34.6893736  74.4714446  59.1713570
  34.1293294  74.5407635  59.9445132  34.0837240  74.2955431  58.4513066
  17.7588945  85.9051173  60.9231756  17.6421329  86.8496606  60.8210447
  16.9381392  85.6024735  61.3117555  27.6465480  80.6301309  51.7688349
  28.4811084  80.1982507  51.5865824  27.4849823  80.4583323  52.6965243
  27.3011372  77.1333422  53.1344688  27.2460176  76.9677694  52.1933132
  26.6757427  77.8409455  53.2906878  12.0903887  72.3701487  66.9606110
  12.7362751  71.8600440  67.4493336  11.8821038  73.1070168  67.5349536
  24.6157279  79.4382334  72.4598251  25.4848439  79.6122986  72.0984886
  24.1364031  80.2576751  72.3373980  20.6107498  66.6341531  52.7130007
  20.5986167  67.5783371  52.8698278  21.5030919  66.4511677  52.4189468
  18.7843459  86.5579435  64.1387685  19.6870706  86.5903045  64.4554180
  18.5580830  85.6279886  64.1534020  20.5397061  85.3110422  60.7997763
  19.5892692  85.3112283  60.6862136  20.8429548  84.5643156  60.2833798
  24.4259617  63.2284308  56.9675943  23.6592013  62.6742794  57.1132626
  24.8370322  63.3006177  57.8290095  16.4301378  69.5169104  71.0581125
  17.2932840  69.1605908  71.2684449  15.8566789  69.1782998  71.7456529
  36.2749755  91.1470960  61.8643526  36.9128165  91.0277707  61.1606866
  36.1570598  92.0951804  61.9231478  33.0839461  91.0998388  61.8005050
  32.7457973  90.9839453  60.9125585  33.9529229  90.6989553  61.7806057
  28.9426277  92.9533864  57.7901941  28.3791142  92.8623801  57.0218229
  28.8278672  92.1333769  58.2704434  33.5659244  92.2533240  67.7591256
  33.5547885  91.8586038  66.8871760  33.7279884  91.5199312  68.3525027
  26.4890709  94.4485056  60.6286162  27.2812001  94.1075881  60.2132461
  26.7287359  94.5580031  61.5488315  34.5225836  96.6204832  53.1016406
  33.8713815  97.2058913  52.7150420  35.3170198  97.1511027  53.1611444
  28.4481463  93.7093969  53.5003541  29.2212339  93.1622956  53.3616416
  28.8006862  94.5738219  53.7118002  30.2866505  95.0370352  66.7070440
  29.9956371  95.9415982  66.5917106  30.9223490  95.0786879  67.4214509
  31.2122712  92.4147200  63.2971800  31.8086284  92.1903222  62.5828763
  31.2697684  91.6731946  63.8997247  30.7847741  89.8686635  51.1321991
  31.0373261  89.3468157  50.3705454  29.8472300  89.7052781  51.2348674
  35.8291023  88.8722414  58.9396734  36.6154113  88.4541837  58.5887151
  36.0929728  89.7768506  59.1078382  36.0001101  94.3095264  53.6385391
  35.3646934  94.3829891  54.3506295  35.6698507  94.8988863  52.9604470
  41.2299451  88.8097647  59.8429712  41.9624623  88.2396864  60.0767542
  40.4738806  88.4219247  60.2836218  30.5044029  91.7714741  53.3346365
  30.3880287  91.0959645  54.0027450  30.6146289  91.2847115  52.5178519
  32.8475570  91.2324888  57.0393055  32.4833778  90.7055509  57.7505976
  33.7042686  90.8423358  56.8659540  38.7524871  82.5219221  64.3024321
  38.4208196  83.3914632  64.0785536  38.1570484  82.2055505  64.9818351
  32.4881057  86.2614788  52.0354403  32.6555460  87.1295025  52.4024874
  32.2978226  86.4242070  51.1115692  35.2456390  94.7231767  63.7020234
  34.9457114  95.6256806  63.5936041  34.9007450  94.4563950  64.5541386
  28.6968872  91.1745564  59.7356938  27.7719368  91.0421778  59.9434630
  28.9453285  91.9539783  60.2326880  38.6453534  87.2414307  61.3817671
  37.7370412  87.1729716  61.0876432  38.5941130  87.7186252  62.2099496
  32.4670278  88.7172446  53.0201070  32.3469903  89.1629496  53.8586550
  31.7722867  89.0657763  52.4614608  26.0577683  90.8178837  60.5700727
  26.1870064  91.0713316  61.4840139  25.3775134  91.4106545  60.2505382
  30.2277170 101.4876087  56.6691201  30.1501200 102.4383913  56.7479682
  29.6238814 101.1421960  57.3266128  32.7194400  88.6603953  69.3252568
  31.9427734  89.2197873  69.3155433  33.3584963  89.1460736  69.8467438
  40.5115181  85.4430746  63.1595545  39.8689561  85.7363279  62.5135339
  40.0070109  85.3283666  63.9648742  38.1655344  89.1893919  53.8481404
  39.0773200  89.4221306  53.6729102  37.6564991  89.7730963  53.2856483
  30.9740772  91.4689406  68.8870535  31.7155457  92.0074450  68.6105359
  30.2677758  92.0955695  69.0442087  36.4496112  93.6118547  67.4842697
  36.8579468  93.1700957  66.7397329  35.7273373  93.0371174  67.7376890
  32.8027182  88.5491153  64.8576254  33.6488377  88.9730567  65.0010903
  32.7425820  87.8924778  65.5514817  36.7724927  94.1719737  61.2394986
  36.1433789  94.3365451  60.5371053  36.3850589  94.5861347  62.0105950
  40.6514159  95.1074175  58.5939349  39.9665197  95.4873077  58.0436383
  40.7358008  95.7169502  59.3271297  35.9526627  86.2095522  66.5157427
  35.7087559  86.9637582  65.9791703  36.2286558  86.5880869  67.3504674
  37.9065090  92.7534134  65.1934693  38.1181985  93.3965894  64.5169074
  37.8594838  91.9196451  64.7256623  35.5091319  85.3651955  62.0971265
  34.6475798  85.6633208  62.3888003  35.5353754  85.5822354  61.1652298
  32.3252888  93.9094145  58.5045071  32.7891234  94.1881848  57.7149693
  32.0609687  93.0077590  58.3218161  29.2176970  93.4565627  61.4424834
  29.7878327  93.8852895  60.8042318  29.8085081  93.1748212  62.1409020
  31.2621775  90.0317298  55.3134636  31.9645818  90.4838341  55.7808562
  30.9302403  89.3901117  55.9414529  29.7102136  88.6229054  69.6885845
  29.0800797  89.3045335  69.9221242  29.6038224  88.5112136  68.7438983
  25.0047108  88.2900850  60.6151769  24.2146162  88.5458379  60.1391880
  25.4958356  89.1049188  60.7203810  39.0210918  95.6306090  63.3657050
  39.8428362  95.2286277  63.0839732  39.0173321  95.5274324  64.3173166
  26.9561854  88.6545430  57.5735246  26.1593017  88.7664124  58.0918742
  26.7287446  88.9932082  56.7076137  32.7867522  95.1790133  65.5217761
  32.8511954  95.6410540  66.3575933  32.0778445  94.5487498  65.6500071
  23.2884811  88.5431341  63.0466760  23.5392850  89.4278351  63.3124336
  23.8244360  88.3635942  62.2741852  47.1116911  91.9744838  59.7142022
  46.3580619  91.4052236  59.5586026  47.2464452  91.9407503  60.6612656
  32.5015539  96.8458240  55.3896741  32.3661214  97.6909776  55.8181589
  33.0425352  97.0477518  54.6262675  28.9882879  82.9249820  72.0511096
  28.5949824  82.3716019  72.7258740  29.8049019  83.2360399  72.4417614
  25.9544937  94.3633678  55.9624666  26.4669457  95.1576929  56.1130231
  26.6067649  93.6659969  55.8958268  27.7639821  97.4799435  58.0447419
  27.9406450  98.4017399  57.8568403  28.5596655  97.1657854  58.4741799
  31.9050840  84.3407699  69.6431353  32.6460553  84.9414852  69.5635815
  32.1368763  83.5985337  69.0849395  27.0492178  89.5264067  67.9209583
  26.9345693  88.6249324  68.2216681  26.1936696  89.7727763  67.5694399
  34.1284016  97.4681807  69.5197083  33.6847870  96.6818185  69.2017988
  34.7901229  97.6560957  68.8540974  28.8871137  98.9977608  64.0457762
  29.4378562  98.8694672  63.2734756  28.0482613  99.2972498  63.6952654
  36.2265254  97.7484607  67.5478484  36.2083729  98.5693488  67.0558754
  37.1485174  97.6238682  67.7728626  32.6838308  95.2628736  68.3901993
  33.2166645  94.5017024  68.1601301  32.1552389  94.9702388  69.1326147
  35.8508003  80.3688802  63.9195635  35.5072272  81.2590444  63.8434745
  36.2186965  80.1790460  63.0565220  23.9193853  92.6922333  56.7384237
  24.7569075  93.1019341  56.5217944  24.0972121  91.7521775  56.7084431
  35.8158285  90.3597413  52.4268070  35.3004909  91.1302018  52.6656457
  35.5435594  89.6862550  53.0501131  33.4005396  85.2047114  57.4853308
  32.5446993  84.8153965  57.3058947  33.8132348  85.2839075  56.6253094
  34.9304543  82.7393457  61.8844868  34.4269339  82.7023593  61.0712673
  35.2235150  83.6486200  61.9441524  31.1747429  82.8232187  60.8911049
  32.0400426  82.6274996  60.5316939  31.2424938  82.5942539  61.8180406
  40.7892560  93.1129768  54.3621243  40.0122002  92.7740928  53.9176405
  41.4684041  93.1182391  53.6876208  35.6044589  88.2324505  54.2527851
  35.2994724  88.5470655  55.1037994  36.5575031  88.3105925  54.2955184
  34.0491020  94.3914729  55.9020805  33.5212382  93.6567488  55.5894042
  33.5478523  95.1689405  55.6560773  39.0283866  92.5863749  61.0187851
  38.3707541  93.2763011  61.1067980  39.8324266  92.9760181  61.3621837
  28.7809748  85.0534395  58.2627416  29.3553500  84.8309577  57.5300609
  29.3680731  85.1223090  59.0156018  37.8389325  90.9408122  59.0691793
  38.3521207  91.5738114  59.5713503  38.4890549  90.3409317  58.7035153
  29.1079335  87.0838856  52.2823302  28.2716647  87.4213543  52.6032576
  28.9684105  86.9487836  51.3450439  31.0832416  81.9275644  56.9902486
  30.4296828  81.6124661  56.3659100  31.0412890  81.3051384  57.7162309
  32.1943621  92.2094939  48.9055778  31.2870682  91.9784193  49.1046927
  32.6914653  91.4132558  49.0929759  35.1011700 100.9192446  51.8252464
  34.4273398 101.2224143  52.4337422  35.4877522 101.7221527  51.4757921
  34.3170156  88.4157578  61.3150133  33.3992718  88.6372525  61.1571821
  34.7330300  88.4903888  60.4561841  35.1005204  89.8148993  56.4452814
  35.8477023  90.3270390  56.1359936  35.3696793  89.4933046  57.3057207
  33.3731854  92.3107534  53.4279768  32.4643073  92.0266567  53.5252238
  33.4026938  92.7306612  52.5683075  38.6051122  95.9214123  57.1970935
  38.1513449  95.0805033  57.2536126  37.9745088  96.5575522  57.5345716
  37.5484041  86.8506109  58.4271603  36.8106798  86.3383496  58.7581845
  37.8010815  86.4106491  57.6154880  37.0484061  97.7590620  58.1320754
  37.3407035  98.3195677  57.4133119  37.5582681  98.0519181  58.8873913
  37.6495668  79.6282361  59.0213372  37.9554545  78.7679725  58.7339287
  38.3748273  80.2199982  58.8212366  23.9420024  90.0313048  57.4094970
  23.7444424  89.4382409  56.6846037  23.3866688  89.7265258  58.1270909
  31.9216748  89.9236155  59.5289563  31.9765358  88.9709991  59.4532040
  31.1107950  90.0795594  60.0130862  33.0707942  93.8516278  50.7667846
  32.6327372  93.1352137  50.3073484  33.8118383  94.0792392  50.2052938
  29.8609108  88.5413214  57.2879942  29.0476974  88.8407385  57.6945134
  30.3568102  88.1468903  58.0054424  32.0117686  98.5370971  59.2214207
  31.9693865  98.7631818  58.2922739  32.9280385  98.3034346  59.3700008
  35.4583320  89.0055039  66.1194836  35.8132707  89.2326512  66.9789302
  36.1055451  89.3373416  65.4972091  41.1881057  92.1273475  56.8244165
  41.0498955  92.3175071  55.8965354  40.8317275  92.8892857  57.2812216
  29.3523183  86.1131570  62.9041177  29.9922562  85.9720329  62.2064140
  28.5200713  85.8266083  62.5279779  41.2150436  94.1950002  61.8355437
  41.6486943  94.1025291  62.6838491  41.9282017  94.1707502  61.1975453
  30.1283487  95.4134000  59.0176170  30.9224085  94.9184320  58.8158744
  29.4175179  94.8851863  58.6543875  34.9478331  97.7952096  63.3688537
  35.0015353  98.3643032  64.1366253  34.0793113  97.9653981  63.0042574
  26.4366250  89.5577082  55.0935922  25.5063838  89.4961537  55.3105884
  26.5323722  89.0353035  54.2972563  26.3551799  86.0831895  57.6814164
  26.6158617  86.9977228  57.5723324  27.1768972  85.6156337  57.8310777
  27.8276725  87.4969652  64.8512988  28.4999778  87.2887014  64.2025637
  27.0006511  87.2991738  64.4118221  42.0765986  94.2373702  64.3688322
  42.2701876  95.1419513  64.6147597  41.9766604  93.7781121  65.2026907
  33.7302297  84.1231593  66.8678649  33.0830212  84.8221543  66.7743126
  34.5003312  84.5567737  67.2354897  37.1381095  94.3880445  69.9429203
  36.9866601  94.1590997  69.0259286  37.1285774  95.3451046  69.9560548
  33.9066431  91.9612358  64.9275469  34.8358491  92.1123517  64.7544436
  33.4857461  92.0496379  64.0724116  32.7054763  95.9863022  62.6974007
  32.5665848  95.6181807  63.5699945  31.9169359  96.5010662  62.5257964
  33.3002915 101.0872119  54.0399543  33.4754670 100.6160162  54.8545166
  32.6135703 101.7137885  54.2680804  34.2559978  95.3644625  60.0862844
  33.9209810  95.3245395  60.9820494  33.7563924  94.6989341  59.6133255
  28.2304222  90.7712255  65.6115426  28.0924020  90.0392494  66.2126965
  29.1409145  90.6821155  65.3299613  37.1919170  92.7100659  50.3599904
  36.5748340  91.9847487  50.2632957  36.7235658  93.4710020  50.0166978
  30.8586522  90.4832214  65.0999105  31.5686141  89.8425406  65.0585724
  30.8155831  90.7345109  66.0225286  38.8473301  97.4199568  68.0205684
  38.7885847  96.7358788  67.3536267  39.2492820  98.1618558  67.5686310
  29.5715456  87.4697432  66.9194745  29.0352813  87.0188171  67.5716341
  28.9832165  87.6043341  66.1765209  27.8664000 104.2361481  60.8139403
  28.1060598 104.8680006  61.4918422  27.0233196 103.8849521  61.1004763
  28.9817715  86.9286084  49.4821208  28.1047182  86.8074884  49.1183455
  29.4575468  86.1372162  49.2300097  38.8490708  95.3839152  66.2519664
  37.9617487  95.0465073  66.3746063  39.4189259  94.6522183  66.4888429
  20.5019856  91.7163243  59.5762715  21.1890895  91.4024973  58.9883731
  20.3467984  92.6204608  59.3029967  25.3054578  86.6053440  64.0047739
  25.2212766  85.9979109  63.2698149  24.4837284  87.0962458  64.0057236
  32.3791862 100.0440604  63.2180907  32.3062033 100.8495575  63.7300212
  31.9369255 100.2432570  62.3928929  32.1681641  99.2812374  56.7283729
  31.3849163  99.8234054  56.8221953  32.8674387  99.7986354  57.1277970
  35.4778292  85.0907003  59.3717934  35.9746991  84.3376966  59.0519004
  34.7065273  85.1271320  58.8061144  43.3308049  90.7947369  61.0136226
  43.3197925  91.6772084  60.6430159  42.4625428  90.4418920  60.8190763
  34.8390545  99.9427438  65.3739066  35.5518518 100.5774903  65.3014967
  34.3480574 100.0391304  64.5579068  36.5608072  93.8478691  56.9456358
  35.6264351  93.9680153  56.7761062  36.7384741  92.9451157  56.6816367
  32.0613260  87.2324386  59.0989619  31.6911048  86.6795427  59.7870524
  32.5572353  86.6282520  58.5464619  39.9480624  89.6896010  57.4806392
  40.4141076  90.5224001  57.4066694  40.3988124  89.2240991  58.1851650
  29.8902459  97.6921881  66.1944637  30.5911918  98.3258364  66.3474031
  29.4197574  98.0336613  65.4340276  38.0156855  96.0339831  54.4792544
  38.2916699  95.9196426  55.3886418  37.1461353  95.6357316  54.4404717
  37.9197286  82.0576597  61.5197293  37.0060366  82.2880824  61.6879500
  38.3490388  82.1415041  62.3711325  37.6903745  90.2466489  64.0197187
  37.0375195  90.4942396  63.3649640  38.0684125  89.4330627  63.6859664
  34.6510919 100.2826182  58.1225357  34.8333313  99.4647838  58.5853110
  35.4743905 100.4993874  57.6850247  34.9853084  99.2094367  55.3840406
  35.5140851  98.6986822  54.7710568  35.2481304  98.8936897  56.2485939
  33.7391318  90.9886300  70.5063224  33.0631955  90.8880429  71.1765599
  34.5618952  90.8325514  70.9699221  25.4870177  97.2258236  63.1275739
  26.0723614  96.4801924  63.2603644  25.2895015  97.5362193  64.0112403
  28.3408832 100.2609484  58.1438182  27.6719207 100.7455611  57.6602222
  28.2021702 100.5078704  59.0581560  20.0787832  89.7963837  61.8480183
  20.1171931  89.2627427  62.6417301  19.5728124  89.2699042  61.2291160
  32.4814101 102.2953227  64.7420840  33.0332409 102.4584849  65.5069925
  32.8220294 102.8857665  64.0700865  27.4578594  84.6428377  65.3442725
  27.5219920  85.5043208  64.9320123  27.3945714  84.0302379  64.6115083
  26.9330867  86.7151510  68.9915759  27.5602905  86.3328587  69.6053283
  26.0758785  86.4965712  69.3571452  37.3324975  97.1214485  70.5969495
  37.8764879  97.7344443  70.1024449  36.7511820  97.6794063  71.1136508
  23.7096409  88.5227939  54.9234114  24.0049850  87.6138617  54.8701168
  22.8084445  88.5015678  54.6015116  35.6182488 100.2435203  61.7284522
  35.4933627  99.4424943  61.2195468  36.2761579 100.7381396  61.2398492
  27.2390656  86.5983935  60.9061663  26.5177242  87.2119903  60.7669136
  28.0283912  87.1341700  60.8278309  37.6817396  98.0444223  63.3564072
  36.7347732  97.9249574  63.2842399  38.0300170  97.1566721  63.4390334
  30.0416970  83.9338362  67.1802314  30.5651372  84.1800658  67.9428624
  29.8229303  84.7658397  66.7605452  25.4384251  86.2042036  55.0473439
  25.1096957  85.3239415  54.8648545  25.7923622  86.1489705  55.9349828
  34.6863830  97.8396939  59.5568425  34.5388792  96.9113647  59.7375995
  35.5117323  97.8617030  59.0725500  28.5526074  86.4915006  55.4148917
  28.8922147  87.0200927  54.6927525  28.9998194  86.8295412  56.1907483
  38.2897952  98.6625498  60.6433297  39.2144499  98.4568359  60.5057749
  38.1213255  98.4141899  61.5522639  31.2469515  84.8752057  64.8651985
  30.9066335  84.0759870  65.2672665  30.5408521  85.1753768  64.2928818
  31.8985987  81.9601369  63.3179308  32.7212056  81.4861848  63.1958198
  32.1424050  82.7391853  63.8177994  30.5394221  84.9889628  53.6142210
  31.2602584  85.3670881  53.1105926  29.9159525  85.7078505  53.7177188
  34.6825344  85.6934777  54.5500542  34.8988958  86.5759415  54.2489370
  34.2019411  85.3020990  53.8206184  29.4224565  88.6520490  61.1271287
  29.2769146  88.9660793  62.0195568  28.9449769  89.2705390  60.5742185
  31.2820948  85.6423038  61.1752176  31.2682517  84.7464131  60.8384474
  31.9993376  85.6493702  61.8090462  33.1347079  86.0760378  63.2205304
  32.8764857  86.9977449  63.2189634  32.6032119  85.6790813  63.9105768
  38.0793268  99.1811165  55.9995389  38.2530145  98.6157588  55.2469241
  38.5722159  99.9812060  55.8174879  23.8970228  91.1925834  64.0658948
  23.3523696  91.9685642  64.1979222  24.7749577  91.5396639  63.9078069
  30.6857844  84.5237418  56.4439746  30.8073755  83.5954064  56.6430634
  30.3959887  84.5376104  55.5318062  33.5549035  82.2092329  59.5806466
  33.5770731  82.2731662  58.6258446  33.9717094  81.3696837  59.7746972
  43.9332659  91.9447588  57.6185689  44.3763805  91.1954913  57.2204812
  43.0559169  91.9357725  57.2359421  39.0668440  98.4977930  53.0992287
  39.7619345  99.1184622  53.3179602  39.4091590  97.6473281  53.3744665
  24.6836249  90.3195731  66.9589105  23.9417985  90.4678366  67.5453735
  24.3628994  90.5803996  66.0955854  40.9659863  95.9477635  54.6279618
  41.4911187  96.2864908  53.9028938  40.8782216  95.0124651  54.4442753
  32.6279912  99.8611709  66.7569495  32.9367039  99.6160856  67.6292194
  33.4255394 100.0658347  66.2688365  32.6500524 102.0149619  58.9874871
  32.2105514 101.5225997  59.6807728  33.4008641 101.4722586  58.7466946
  25.1292863  98.2061159  58.9899499  25.9550883  97.9064931  58.6098143
  24.7786915  97.4368782  59.4389288  30.0974396  97.5587628  61.0597173
  29.4754406  96.8958333  60.7599401  30.7679263  97.5848760  60.3770821
  23.3301468  96.1247486  59.9488433  22.4933376  95.6969660  59.7672434
  23.3025114  96.3179929  60.8859224  30.1698924  86.0369416  70.6529679
  30.2187079  86.9131538  70.2707448  30.7121438  85.4946809  70.0801322
  40.6553769  96.5810539  69.9330816  39.8649313  96.5634678  69.3935315
  40.4187124  97.1198833  70.6879852  40.7751644  93.4303005  67.2463544
  40.8249649  93.2653013  68.1879067  40.6665568  92.5630264  66.8561425
  29.6587903  96.1091551  54.5355633  29.8076024  96.7927015  53.8822306
  30.4654347  96.0896641  55.0505089  38.0655407  89.4133933  68.5622851
  38.9665270  89.2740398  68.2706849  38.1403381  89.5788388  69.5021029
  32.3998212  86.7900788  67.4076037  31.5301522  87.0834354  67.1358626
  32.6357693  87.3741233  68.1283301  42.2769841  95.8499947  67.4905566
  41.9854650  96.2129927  68.3269027  41.6641973  95.1366955  67.3118898
  43.4765524  93.4152827  60.0108136  44.3112415  93.8542631  60.1745697
  43.6124652  92.9391480  59.1916382  40.5257030  90.9732561  65.9585624
  41.0011151  91.1660208  65.1504475  39.6022595  91.0291747  65.7129008
  27.4140536  92.1356729  55.5416702  27.1686578  91.2319059  55.7396912
  27.5836451  92.1373879  54.5996180  35.1037246  83.0080405  64.9241458
  35.6219190  83.7441432  64.5987946  34.7492379  83.3144398  65.7588217
  26.6836184  87.8685086  53.0402864  25.9905429  87.9429441  52.3842900
  26.4387936  87.1045430  53.5624381  35.3549840  79.4280688  60.4442354
  35.6351594  78.7603877  61.0702781  36.1400447  79.6209783  59.9317018
  33.1583309  98.6039681  52.0067381  32.5857276  99.2229869  51.5537853
  33.7316102  99.1539043  52.5407303  39.2258699  87.8498322  64.1913930
  40.1776121  87.9496419  64.2126154  39.0562149  87.0576590  64.7012014
  37.2473078  84.9353905  64.3773330  36.6523010  85.2158917  63.6819819
  36.9622775  85.4247806  65.1490072  36.3780568  98.8876832  53.1375963
  37.3111242  98.8222393  53.3408839  36.2903781  99.7233098  52.6790496
  39.0068585  98.2042702  50.0979911  38.9282217  97.8702565  50.9915669
  39.8278252  98.6964470  50.0971383  41.7046776  91.0704441  63.3056229
  41.6723096  90.1320442  63.4915913  42.3147400  91.1488478  62.5722054
  33.5430107  89.9400494  49.3483433  34.4889212  89.8106702  49.4171851
  33.1644352  89.2015156  49.8252861  41.8541265  87.8615485  63.3514512
  41.3380313  87.0773941  63.1644441  42.7381213  87.5334201  63.5161032
  39.5151992  81.6056500  59.3110325  39.3176813  81.2971588  60.1953657
  40.1251697  82.3318139  59.4408255  47.5223326  92.1320448  62.4462266
  48.2526715  91.8705736  63.0069969  46.9130272  91.3949170  62.4864334
  45.6038623  90.2728311  63.0436717  44.8771787  90.1384276  62.4353209
  45.1885910  90.5805139  63.8493435  33.4268800  93.9918240  70.8084090
  34.3471809  94.1696839  71.0024137  33.3918383  93.0474286  70.6563789
  31.7273024  87.8650471  49.2838318  30.8204480  87.5683583  49.3601032
  32.0049005  87.5680289  48.4172605  22.6450965  89.1856834  59.7337365
  22.3253749  88.3322142  59.4411739  22.0984393  89.4005412  60.4895332
  26.4230872  91.9019275  63.4506871  26.6416882  92.8336383  63.4694905
  26.8356646  91.5427249  64.2361675  33.3435090  82.4087360  55.4382560
  32.5335818  82.0634445  55.8137806  34.0319507  82.0994904  56.0270171
  35.2725638  81.4865407  57.0606856  35.8256677  81.9060861  57.7196880
  35.5095725  80.5601155  57.1029812  31.2958738  87.4752481  72.8409620
  31.1955464  88.4246838  72.7721711  31.0780280  87.1470720  71.9685690
  30.4971809  84.7237406  49.4250298  31.3590973  85.0492304  49.6846115
  30.6822153  83.9368902  48.9123363  22.5139225  92.8059745  61.7030486
  21.8202696  92.3913698  61.1900441  23.2612216  92.8480282  61.1063905
  38.6504445  83.5965932  56.5685521  38.0703115  84.2550736  56.1863573
  38.3840378  82.7743277  56.1572938  37.1008012  82.9970990  58.7706841
  37.6007790  83.1087524  57.9621160  37.7443620  82.6932043  59.4107649
  31.1590008  90.9049620  71.6574682  30.6757089  91.7049980  71.8638571
  31.2450947  90.9157564  70.7042126  24.4275967  92.7377999  59.5796501
  24.4046655  92.8365687  58.6278384  24.7376604  93.5843150  59.9013667
  27.0863345  94.7954154  63.6943116  28.0406599  94.7638097  63.6273047
  26.8875869  94.3344778  64.5093342  27.6762727  93.3655270  66.2613913
  28.4955616  93.8599349  66.2848751  27.9499535  92.4487238  66.2331481
  37.4329323  85.7566023  55.6241869  36.5455179  86.0415673  55.4062064
  37.8483313  85.5959786  54.7769146  40.7843860  85.7812544  59.3396208
  41.5604250  86.2708996  59.6120825  40.0591994  86.2070598  59.7968078
  43.2216418  86.4940163  60.3970149  43.8160909  86.2535899  59.6863457
  43.2943002  85.7747293  61.0243685  25.4413574 100.3373774  60.7113314
  25.3068042  99.5774175  60.1451312  25.0245636 101.0614674  60.2442103
  36.5772537  95.5210697  49.7189889  37.2808387  95.7260700  50.3347545
  35.8535186  96.0887459  49.9838972  37.4070347  91.2720559  55.8392159
  37.3505549  91.7289110  54.9999792  37.9598690  90.5111243  55.6615002
  41.2175153  87.0610290  56.6642279  40.9612087  86.6606926  57.4950486
  40.5928021  87.7754084  56.5392418  45.5287491  89.8006364  59.1713570
  44.9687049  89.8699553  59.9445132  44.9230994  89.6247348  58.4513066
  28.5982700 101.2343091  60.9231756  28.4815084 102.1788523  60.8210447
  27.7775146 100.9316652  61.3117555  38.4859234  95.9593226  51.7688349
  39.3204838  95.5274425  51.5865824  38.3243577  95.7875240  52.6965243
  38.1405127  92.4625340  53.1344688  38.0853930  92.2969611  52.1933132
  37.5151182  93.1701373  53.2906878  22.9297642  87.6993404  66.9606110
  23.5756505  87.1892358  67.4493336  22.7214793  88.4362086  67.5349536
  35.4551034  94.7674252  72.4598251  36.3242193  94.9414904  72.0984886
  34.9757785  95.5868668  72.3373980  31.4501252  81.9633449  52.7130007
  31.4379922  82.9075289  52.8698278  32.3424674  81.7803594  52.4189468
  29.6237214 101.8871353  64.1387685  30.5264461 101.9194963  64.4554180
  29.3974584 100.9571804  64.1534020  31.3790816 100.6402339  60.7997763
  30.4286447 100.6404201  60.6862136  31.6823302  99.8935074  60.2833798
  35.2653371  78.5576225  56.9675943  34.4985767  78.0034712  57.1132626
  35.6764076  78.6298094  57.8290095  27.2695133  84.8461021  71.0581125
  28.1326594  84.4897826  71.2684449  26.6960543  84.5074916  71.7456529
  47.1143509 106.4762878  61.8643526  47.7521919 106.3569625  61.1606866
  46.9964352 107.4243722  61.9231478  43.9233216 106.4290306  61.8005050
  43.5851727 106.3131370  60.9125585  44.7922984 106.0281471  61.7806057
  39.7820031 108.2825782  57.7901941  39.2184897 108.1915719  57.0218229
  39.6672426 107.4625687  58.2704434  44.4052999 107.5825157  67.7591256
  44.3941639 107.1877956  66.8871760  44.5673638 106.8491230  68.3525027
  37.3284463 109.7776974  60.6286162  38.1205755 109.4367798  60.2132461
  37.5681114 109.8871949  61.5488315  45.3619590 111.9496750  53.1016406
  44.7107570 112.5350830  52.7150420  46.1563953 112.4802945  53.1611444
  39.2875217 109.0385887  53.5003541  40.0606093 108.4914874  53.3616416
  39.6400616 109.9030136  53.7118002  41.1260260 110.3662269  66.7070440
  40.8350126 111.2707900  66.5917106  41.7617244 110.4078797  67.4214509
  42.0516467 107.7439118  63.2971800  42.6480039 107.5195140  62.5828763
  42.1091438 107.0023863  63.8997247  41.6241495 105.1978553  51.1321991
  41.8767016 104.6760074  50.3705454  40.6866054 105.0344699  51.2348674
  46.6684778 104.2014331  58.9396734  47.4547867 103.7833755  58.5887151
  46.9323482 105.1060424  59.1078382  46.8394855 109.6387182  53.6385391
  46.2040688 109.7121808  54.3506295  46.5092262 110.2280781  52.9604470
  52.0693205 104.1389565  59.8429712  52.8018377 103.5688781  60.0767542
  51.3132561 103.7511165  60.2836218  41.3437784 107.1006659  53.3346365
  41.2274042 106.4251562  54.0027450  41.4540044 106.6139033  52.5178519
  43.6869325 106.5616806  57.0393055  43.3227532 106.0347427  57.7505976
  44.5436441 106.1715275  56.8659540  49.5918625  97.8511139  64.3024321
  49.2601950  98.7206550  64.0785536  48.9964239  97.5347423  64.9818351
  43.3274812 101.5906706  52.0354403  43.4949214 102.4586942  52.4024874
  43.1371981 101.7533988  51.1115692  46.0850145 110.0523685  63.7020234
  45.7850868 110.9548724  63.5936041  45.7401204 109.7855868  64.5541386
  39.5362626 106.5037482  59.7356938  38.6113123 106.3713696  59.9434630
  39.7847040 107.2831701  60.2326880  49.4847289 102.5706225  61.3817671
  48.5764166 102.5021633  61.0876432  49.4334885 103.0478170  62.2099496
  43.3064033 104.0464363  53.0201070  43.1863658 104.4921414  53.8586550
  42.6116621 104.3949681  52.4614608  36.8971437 106.1470755  60.5700727
  37.0263819 106.4005234  61.4840139  36.2168889 106.7398463  60.2505382
  43.5588155 103.9895871  69.3252568  42.7821489 104.5489791  69.3155433
  44.1978718 104.4752654  69.8467438  51.3508935 100.7722663  63.1595545
  50.7083315 101.0655196  62.5135339  50.8463864 100.6575584  63.9648742
  49.0049099 104.5185837  53.8481404  49.9166955 104.7513223  53.6729102
  48.4958746 105.1022881  53.2856483  41.8134527 106.7981324  68.8870535
  42.5549211 107.3366368  68.6105359  41.1071512 107.4247613  69.0442087
  47.2889866 108.9410464  67.4842697  47.6973222 108.4992875  66.7397329
  46.5667128 108.3663092  67.7376890  43.6420937 103.8783071  64.8576254
  44.4882132 104.3022485  65.0010903  43.5819574 103.2216695  65.5514817
  47.6118681 109.5011655  61.2394986  46.9827544 109.6657369  60.5371053
  47.2244343 109.9153265  62.0105950  51.4907913 110.4366093  58.5939349
  50.8058951 110.8164994  58.0436383  51.5751762 111.0461419  59.3271297
  46.7920382 101.5387439  66.5157427  46.5481314 102.2929500  65.9791703
  47.0680312 101.9172787  67.3504674  48.7458845 108.0826052  65.1934693
  48.9575740 108.7257812  64.5169074  48.6988593 107.2488368  64.7256623
  46.3485074 100.6943873  62.0971265  45.4869553 100.9925126  62.3888003
  46.3747508 100.9114271  61.1652298  43.1646643 109.2386063  58.5045071
  43.6284989 109.5173766  57.7149693  42.9003441 108.3369508  58.3218161
  40.0570724 108.7857545  61.4424834  40.6272081 109.2144813  60.8042318
  40.6478836 108.5040129  62.1409020  42.1015529 105.3609215  55.3134636
  42.8039572 105.8130259  55.7808562  41.7696158 104.7193034  55.9414529
  40.5495891 103.9520972  69.6885845  39.9194551 104.6337253  69.9221242
  40.4431978 103.8404054  68.7438983  35.8440863 103.6192768  60.6151769
  35.0539917 103.8750297  60.1391880  36.3352110 104.4341106  60.7203810
  49.8604673 110.9598007  63.3657050  50.6822116 110.5578195  63.0839732
  49.8567075 110.8566241  64.3173166  37.7955608 103.9837347  57.5735246
  36.9986772 104.0956042  58.0918742  37.5681201 104.3224000  56.7076137
  43.6261276 110.5082051  65.5217761  43.6905709 110.9702458  66.3575933
  42.9172200 109.8779415  65.6500071  34.1278566 103.8723259  63.0466760
  34.3786604 104.7570268  63.3124336  34.6638114 103.6927860  62.2741852
  57.9510666 107.3036756  59.7142022  57.1974374 106.7344154  59.5586026
  58.0858207 107.2699420  60.6612656  43.3409294 112.1750158  55.3896741
  43.2054968 113.0201694  55.8181589  43.8819106 112.3769436  54.6262675
  39.8276633  98.2541738  72.0511096  39.4343579  97.7007936  72.7258740
  40.6442774  98.5652316  72.4417614  36.7938691 109.6925596  55.9624666
  37.3063212 110.4868846  56.1130231  37.4461404 108.9951887  55.8958268
  38.6033576 112.8091352  58.0447419  38.7800204 113.7309317  57.8568403
  39.3990409 112.4949772  58.4741799  42.7444594  99.6699617  69.6431353
  43.4854308 100.2706770  69.5635815  42.9762517  98.9277255  69.0849395
  37.8885932 104.8555984  67.9209583  37.7739447 103.9541241  68.2216681
  37.0330450 105.1019681  67.5694399  44.9677770 112.7973725  69.5197083
  44.5241624 112.0110103  69.2017988  45.6294984 112.9852875  68.8540974
  39.7264891 114.3269526  64.0457762  40.2772316 114.1986590  63.2734756
  38.8876367 114.6264415  63.6952654  47.0659008 113.0776524  67.5478484
  47.0477483 113.8985406  67.0558754  47.9878928 112.9530600  67.7728626
  43.5232062 110.5920654  68.3901993  44.0560399 109.8308942  68.1601301
  42.9946143 110.2994306  69.1326147  46.6901757  95.6980720  63.9195635
  46.3466027  96.5882362  63.8434745  47.0580720  95.5082378  63.0565220
  34.7587608 108.0214250  56.7384237  35.5962830 108.4311259  56.5217944
  34.9365876 107.0813693  56.7084431  46.6552040 105.6889331  52.4268070
  46.1398663 106.4593936  52.6656457  46.3829348 105.0154467  53.0501131
  44.2399151 100.5339032  57.4853308  43.3840747 100.1445882  57.3058947
  44.6526103 100.6130993  56.6253094  45.7698298  98.0685375  61.8844868
  45.2663093  98.0315510  61.0712673  46.0628904  98.9778118  61.9441524
  42.0141183  98.1524105  60.8911049  42.8794180  97.9566914  60.5316939
  42.0818692  97.9234457  61.8180406  51.6286314 108.4421686  54.3621243
  50.8515757 108.1032845  53.9176405  52.3077795 108.4474309  53.6876208
  46.4438343 103.5616423  54.2527851  46.1388479 103.8762572  55.1037994
  47.3968785 103.6397843  54.2955184  44.8884775 109.7206646  55.9020805
  44.3606137 108.9859406  55.5894042  44.3872278 110.4981323  55.6560773
  49.8677621 107.9155667  61.0187851  49.2101295 108.6054928  61.1067980
  50.6718020 108.3052099  61.3621837  39.6203503 100.3826313  58.2627416
  40.1947254 100.1601494  57.5300609  40.2074485 100.4515007  59.0156018
  48.6783080 106.2700040  59.0691793  49.1914962 106.9030031  59.5713503
  49.3284304 105.6701235  58.7035153  39.9473090 102.4130774  52.2823302
  39.1110402 102.7505460  52.6032576  39.8077859 102.2779754  51.3450439
  41.9226170  97.2567562  56.9902486  41.2690583  96.9416579  56.3659100
  41.8806644  96.6343302  57.7162309  43.0337375 107.5386857  48.9055778
  42.1264437 107.3076110  49.1046927  43.5308407 106.7424476  49.0929759
  45.9405454 116.2484364  51.8252464  45.2667153 116.5516061  52.4337422
  46.3271276 117.0513444  51.4757921  45.1563911 103.7449495  61.3150133
  44.2386472 103.9664442  61.1571821  45.5724054 103.8195806  60.4561841
  45.9398958 105.1440911  56.4452814  46.6870777 105.6562308  56.1359936
  46.2090548 104.8224964  57.3057207  44.2125609 107.6399452  53.4279768
  43.3036828 107.3558484  53.5252238  44.2420692 108.0598530  52.5683075
  49.4444876 111.2506041  57.1970935  48.9907203 110.4096951  57.2536126
  48.8138843 111.8867439  57.5345716  48.3877796 102.1798027  58.4271603
  47.6500552 101.6675413  58.7581845  48.6404569 101.7398409  57.6154880
  47.8877815 113.0882538  58.1320754  48.1800790 113.6487595  57.4133119
  48.3976436 113.3811099  58.8873913  48.4889423  94.9574279  59.0213372
  48.7948300  94.0971643  58.7339287  49.2142028  95.5491899  58.8212366
  34.7813779 105.3604966  57.4094970  34.5838179 104.7674326  56.6846037
  34.2260443 105.0557176  58.1270909  42.7610503 105.2528072  59.5289563
  42.8159112 104.3001909  59.4532040  41.9501705 105.4087511  60.0130862
  43.9101696 109.1808195  50.7667846  43.4721126 108.4644054  50.3073484
  44.6512137 109.4084310  50.2052938  40.7002863 103.8705132  57.2879942
  39.8870728 104.1699302  57.6945134  41.1961857 103.4760821  58.0054424
  42.8511440 113.8662889  59.2214207  42.8087619 114.0923735  58.2922739
  43.7674139 113.6326263  59.3700008  46.2977074 104.3346956  66.1194836
  46.6526462 104.5618430  66.9789302  46.9449205 104.6665333  65.4972091
  52.0274811 107.4565392  56.8244165  51.8892710 107.6466988  55.8965354
  51.6711030 108.2184775  57.2812216  40.1916937 101.4423487  62.9041177
  40.8316317 101.3012247  62.2064140  39.3594468 101.1558001  62.5279779
  52.0544191 109.5241919  61.8355437  52.4880697 109.4317208  62.6838491
  52.7675771 109.4999420  61.1975453  40.9677241 110.7425918  59.0176170
  41.7617840 110.2476238  58.8158744  40.2568934 110.2143781  58.6543875
  45.7872086 113.1244013  63.3688537  45.8409108 113.6934950  64.1366253
  44.9186867 113.2945898  63.0042574  37.2760005 104.8869000  55.0935922
  36.3457593 104.8253455  55.3105884  37.3717477 104.3644952  54.2972563
  37.1945554 101.4123812  57.6814164  37.4552371 102.3269146  57.5723324
  38.0162726 100.9448255  57.8310777  38.6670479 102.8261570  64.8512988
  39.3393532 102.6178932  64.2025637  37.8400266 102.6283656  64.4118221
  52.9159740 109.5665620  64.3688322  53.1095630 110.4711430  64.6147597
  52.8160358 109.1073039  65.2026907  44.5696051  99.4523511  66.8678649
  43.9223966 100.1513460  66.7743126  45.3397066  99.8859654  67.2354897
  47.9774849 109.7172363  69.9429203  47.8260355 109.4882914  69.0259286
  47.9679528 110.6742964  69.9560548  44.7460185 107.2904275  64.9275469
  45.6752245 107.4415435  64.7544436  44.3251215 107.3788296  64.0724116
  43.5448517 111.3154940  62.6974007  43.4059603 110.9473724  63.5699945
  42.7563113 111.8302579  62.5257964  44.1396669 116.4164036  54.0399543
  44.3148425 115.9452080  54.8545166  43.4529457 117.0429803  54.2680804
  45.0953732 110.6936543  60.0862844  44.7603565 110.6537313  60.9820494
  44.5957678 110.0281258  59.6133255  39.0697976 106.1004173  65.6115426
  38.9317774 105.3684411  66.2126965  39.9802900 106.0113073  65.3299613
  48.0312924 108.0392577  50.3599904  47.4142095 107.3139405  50.2632957
  47.5629412 108.8001937  50.0166978  41.6980277 105.8124132  65.0999105
  42.4079895 105.1717324  65.0585724  41.6549585 106.0637027  66.0225286
  49.6867056 112.7491485  68.0205684  49.6279602 112.0650705  67.3536267
  50.0886574 113.4910475  67.5686310  40.4109211 102.7989350  66.9194745
  39.8746568 102.3480088  67.5716341  39.8225919 102.9335259  66.1765209
  39.8211470 102.2578001  49.4821208  38.9440936 102.1366802  49.1183455
  40.2969223 101.4664080  49.2300097  49.6884463 110.7131069  66.2519664
  48.8011242 110.3756991  66.3746063  50.2583014 109.9814100  66.4888429
  31.3413610 107.0455161  59.5762715  32.0284650 106.7316891  58.9883731
  31.1861739 107.9496526  59.3029967  36.1448332 101.9345358  64.0047739
  36.0606521 101.3271027  63.2698149  35.3231039 102.4254376  64.0057236
  43.2185616 115.3732522  63.2180907  43.1455788 116.1787493  63.7300212
  42.7763009 115.5724487  62.3928929  43.0075396 114.6104292  56.7283729
  42.2242918 115.1525972  56.8221953  43.7068141 115.1278271  57.1277970
  46.3172046 100.4198921  59.3717934  46.8140746  99.6668883  59.0519004
  45.5459028 100.4563238  58.8061144  54.1701803 106.1239287  61.0136226
  54.1591680 107.0064002  60.6430159  53.3019183 105.7710837  60.8190763
  45.6784300 115.2719356  65.3739066  46.3912272 115.9066820  65.3014967
  45.1874328 115.3683222  64.5579068  47.4001827 109.1770608  56.9456358
  46.4658105 109.2972071  56.7761062  47.5778495 108.2743075  56.6816367
  42.9007015 102.5616304  59.0989619  42.5304802 102.0087344  59.7870524
  43.3966107 101.9574438  58.5464619  50.7874378 105.0187928  57.4806392
  51.2534830 105.8515919  57.4066694  51.2381879 104.5532909  58.1851650
  40.7296213 113.0213799  66.1944637  41.4305673 113.6550282  66.3474031
  40.2591328 113.3628531  65.4340276  48.8550609 111.3631749  54.4792544
  49.1310453 111.2488343  55.3886418  47.9855108 110.9649234  54.4404717
  48.7591041  97.3868515  61.5197293  47.8454121  97.6172741  61.6879500
  49.1884142  97.4706959  62.3711325  48.5297499 105.5758406  64.0197187
  47.8768950 105.8234314  63.3649640  48.9077879 104.7622545  63.6859664
  45.4904673 115.6118100  58.1225357  45.6727068 114.7939756  58.5853110
  46.3137659 115.8285792  57.6850247  45.8246839 114.5386285  55.3840406
  46.3534605 114.0278739  54.7710568  46.0875058 114.2228815  56.2485939
  44.5785072 106.3178218  70.5063224  43.9025709 106.2172347  71.1765599
  45.4012706 106.1617431  70.9699221  36.3263931 112.5550154  63.1275739
  36.9117368 111.8093842  63.2603644  36.1288770 112.8654111  64.0112403
  39.1802587 115.5901401  58.1438182  38.5112962 116.0747529  57.6602222
  39.0415456 115.8370622  59.0581560  30.9181586 105.1255754  61.8480183
  30.9565686 104.5919345  62.6417301  30.4121879 104.5990960  61.2291160
  43.3207855 117.6245145  64.7420840  43.8726163 117.7876767  65.5069925
  43.6614049 118.2149583  64.0700865  38.2972348  99.9720295  65.3442725
  38.3613675 100.8335126  64.9320123  38.2339469  99.3594296  64.6115083
  37.7724621 102.0443427  68.9915759  38.3996660 101.6620505  69.6053283
  36.9152540 101.8257629  69.3571452  48.1718730 112.4506403  70.5969495
  48.7158634 113.0636361  70.1024449  47.5905574 113.0085981  71.1136508
  34.5490164 103.8519856  54.9234114  34.8443605 102.9430535  54.8701168
  33.6478200 103.8307596  54.6015116  46.4576243 115.5727121  61.7284522
  46.3327382 114.7716860  61.2195468  47.1155334 116.0673314  61.2398492
  38.0784411 101.9275853  60.9061663  37.3570997 102.5411821  60.7669136
  38.8677667 102.4633618  60.8278309  48.5211151 113.3736141  63.3564072
  47.5741486 113.2541492  63.2842399  48.8693924 112.4858639  63.4390334
  40.8810724  99.2630280  67.1802314  41.4045126  99.5092576  67.9428624
  40.6623058 100.0950314  66.7605452  36.2778005 101.5333954  55.0473439
  35.9490711 100.6531333  54.8648545  36.6317376 101.4781623  55.9349828
  45.5257584 113.1688857  59.5568425  45.3782547 112.2405564  59.7375995
  46.3511078 113.1908948  59.0725500  39.3919828 101.8206924  55.4148917
  39.7315901 102.3492845  54.6927525  39.8391949 102.1587330  56.1907483
  49.1291706 113.9917416  60.6433297  50.0538254 113.7860277  60.5057749
  48.9607009 113.7433817  61.5522639  42.0863269 100.2043975  64.8651985
  41.7460090  99.4051788  65.2672665  41.3802276 100.5045685  64.2928818
  42.7379741  97.2893287  63.3179308  43.5605810  96.8153765  63.1958198
  42.9817805  98.0683771  63.8177994  41.3787976 100.3181546  53.6142210
  42.0996338 100.6962798  53.1105926  40.7553280 101.0370422  53.7177188
  45.5219099 101.0226694  54.5500542  45.7382713 101.9051332  54.2489370
  45.0413166 100.6312908  53.8206184  40.2618320 103.9812408  61.1271287
  40.1162901 104.2952711  62.0195568  39.7843524 104.5997308  60.5742185
  42.1214703 100.9714956  61.1752176  42.1076272 100.0756049  60.8384474
  42.8387131 100.9785619  61.8090462  43.9740833 101.4052296  63.2205304
  43.7158611 102.3269367  63.2189634  43.4425874 101.0082730  63.9105768
  48.9187022 114.5103083  55.9995389  49.0923900 113.9449505  55.2469241
  49.4115913 115.3103978  55.8174879  34.7363982 106.5217752  64.0658948
  34.1917450 107.2977560  64.1979222  35.6143332 106.8688557  63.9078069
  41.5251599  99.8529336  56.4439746  41.6467510  98.9245982  56.6430634
  41.2353641  99.8668022  55.5318062  44.3942789  97.5384246  59.5806466
  44.4164486  97.6023579  58.6258446  44.8110848  96.6988755  59.7746972
  54.7726413 107.2739506  57.6185689  55.2157559 106.5246831  57.2204812
  53.8952924 107.2649642  57.2359421  49.9062195 113.8269847  53.0992287
  50.6013099 114.4476540  53.3179602  50.2485345 112.9765199  53.3744665
  35.5230004 105.6487648  66.9589105  34.7811740 105.7970284  67.5453735
  35.2022748 105.9095914  66.0955854  51.8053618 111.2769553  54.6279618
  52.3304942 111.6156826  53.9028938  51.7175970 110.3416568  54.4442753
  43.4673667 115.1903627  66.7569495  43.7760793 114.9452773  67.6292194
  44.2649149 115.3950265  66.2688365  43.4894279 117.3441536  58.9874871
  43.0499269 116.8517915  59.6807728  44.2402396 116.8014504  58.7466946
  35.9686618 113.5353077  58.9899499  36.7944638 113.2356849  58.6098143
  35.6180670 112.7660700  59.4389288  40.9368151 112.8879545  61.0597173
  40.3148160 112.2250250  60.7599401  41.6073018 112.9140677  60.3770821
  34.1695223 111.4539404  59.9488433  33.3327131 111.0261578  59.7672434
  34.1418868 111.6471847  60.8859224  41.0092678 101.3661333  70.6529679
  41.0580834 102.2423456  70.2707448  41.5515192 100.8238726  70.0801322
  51.4947524 111.9102457  69.9330816  50.7043068 111.8926595  69.3935315
  51.2580879 112.4490750  70.6879852  51.6145399 108.7594923  67.2463544
  51.6643404 108.5944930  68.1879067  51.5059322 107.8922182  66.8561425
  40.4981658 111.4383469  54.5355633  40.6469778 112.1218933  53.8822306
  41.3048101 111.4188559  55.0505089  48.9049161 104.7425851  68.5622851
  49.8059024 104.6032316  68.2706849  48.9797136 104.9080306  69.5021029
  43.2391967 102.1192706  67.4076037  42.3695276 102.4126272  67.1358626
  43.4751447 102.7033151  68.1283301  53.1163596 111.1791864  67.4905566
  52.8248404 111.5421845  68.3269027  52.5035727 110.4658873  67.3118898
  54.3159278 108.7444744  60.0108136  55.1506170 109.1834548  60.1745697
  54.4518407 108.2683397  59.1916382  51.3650784 106.3024479  65.9585624
  51.8404906 106.4952125  65.1504475  50.4416349 106.3583665  65.7129008
  38.2534291 107.4648646  55.5416702  38.0080333 106.5610976  55.7396912
  38.4230205 107.4665797  54.5996180  45.9431001  98.3372323  64.9241458
  46.4612944  99.0733350  64.5987946  45.5886133  98.6436316  65.7588217
  37.5229938 103.1977004  53.0402864  36.8299183 103.2721359  52.3842900
  37.2781690 102.4337347  53.5624381  46.1943595  94.7572605  60.4442354
  46.4745348  94.0895794  61.0702781  46.9794202  94.9501701  59.9317018
  43.9977063 113.9331599  52.0067381  43.4251030 114.5521786  51.5537853
  44.5709857 114.4830961  52.5407303  50.0652453 103.1790239  64.1913930
  51.0169876 103.2788337  64.2126154  49.8955903 102.3868508  64.7012014
  48.0866833 100.2645822  64.3773330  47.4916765 100.5450835  63.6819819
  47.8016529 100.7539723  65.1490072  47.2174323 114.2168749  53.1375963
  48.1504996 114.1514311  53.3408839  47.1297536 115.0525016  52.6790496
  49.8462340 113.5334620  50.0979911  49.7675971 113.1994483  50.9915669
  50.6672006 114.0256387  50.0971383  52.5440531 106.3996359  63.3056229
  52.5116851 105.4612360  63.4915913  53.1541154 106.4780396  62.5722054
  44.3823862 105.2692412  49.3483433  45.3282966 105.1398620  49.4171851
  44.0038107 104.5307074  49.8252861  52.6935019 103.1907402  63.3514512
  52.1774068 102.4065859  63.1644441  53.5774968 102.8626119  63.5161032
  50.3545746  96.9348418  59.3110325  50.1570567  96.6263506  60.1953657
  50.9645452  97.6610057  59.4408255  58.3617081 107.4612366  62.4462266
  59.0920469 107.1997654  63.0069969  57.7524026 106.7241088  62.4864334
  56.4432378 105.6020228  63.0436717  55.7165541 105.4676193  62.4353209
  56.0279665 105.9097057  63.8493435  44.2662554 109.3210158  70.8084090
  45.1865564 109.4988757  71.0024137  44.2312137 108.3766203  70.6563789
  42.5666779 103.1942388  49.2838318  41.6598234 102.8975501  49.3601032
  42.8442760 102.8972206  48.4172605  33.4844719 104.5148752  59.7337365
  33.1647504 103.6614060  59.4411739  32.9378147 104.7297330  60.4895332
  37.2624627 107.2311193  63.4506871  37.4810637 108.1628300  63.4694905
  37.6750401 106.8719167  64.2361675  44.1828845  97.7379278  55.4382560
  43.3729573  97.3926363  55.8137806  44.8713262  97.4286822  56.0270171
  46.1119393  96.8157325  57.0606856  46.6650431  97.2352778  57.7196880
  46.3489479  95.8893073  57.1029812  42.1352492 102.8044398  72.8409620
  42.0349219 103.7538755  72.7721711  41.9174034 102.4762637  71.9685690
  41.3365563 100.0529323  49.4250298  42.1984727 100.3784222  49.6846115
  41.5215908  99.2660819  48.9123363  33.3532979 108.1351663  61.7030486
  32.6596451 107.7205616  61.1900441  34.1005970 108.1772200  61.1063905
  49.4898200  98.9257850  56.5685521  48.9096869  99.5842654  56.1863573
  49.2234133  98.1035195  56.1572938  47.9401766  98.3262908  58.7706841
  48.4401545  98.4379442  57.9621160  48.5837374  98.0223960  59.4107649
  41.9983762 106.2341537  71.6574682  41.5150844 107.0341897  71.8638571
  42.0844701 106.2449482  70.7042126  35.2669722 108.0669917  59.5796501
  35.2440410 108.1657604  58.6278384  35.5770358 108.9135068  59.9013667
  37.9257100 110.1246072  63.6943116  38.8800353 110.0930014  63.6273047
  37.7269623 109.6636696  64.5093342  38.5156482 108.6947188  66.2613913
  39.3349371 109.1891267  66.2848751  38.7893289 107.7779156  66.2331481
  48.2723078 101.0857940  55.6241869  47.3848933 101.3707591  55.4062064
  48.6877067 100.9251704  54.7769146  51.6237614 101.1104461  59.3396208
  52.3998004 101.6000914  59.6120825  50.8985748 101.5362515  59.7968078
  54.0610173 101.8232081  60.3970149  54.6554664 101.5827816  59.6863457
  54.1336756 101.1039211  61.0243685  47.4166291 110.8502615  49.7189889
  48.1202142 111.0552617  50.3347545  46.6928940 111.4179377  49.9838972
  48.2464102 106.6012476  55.8392159  48.1899303 107.0581028  54.9999792
  48.7992444 105.8403161  55.6615002  52.0568908 102.3902208  56.6642279
  51.8005842 101.9898844  57.4950486  51.4321776 103.1046002  56.5392418
  56.3681245 105.1298281  59.1713570  55.8080803 105.1991471  59.9445132
  55.7624749 104.9539266  58.4513066  49.3252989 111.2885144  51.7688349
  50.1598593 110.8566343  51.5865824  49.1637332 111.1167158  52.6965243
  48.9798881 107.7917257  53.1344688  48.9247685 107.6261529  52.1933132
  48.3544936 108.4993290  53.2906878  33.7691396 103.0285322  66.9606110
  34.4150260 102.5184276  67.4493336  33.5608547 103.7654004  67.5349536
  46.2944788 110.0966169  72.4598251  47.1635948 110.2706822  72.0984886
  45.8151540 110.9160586  72.3373980  42.2895006  97.2925366  52.7130007
  42.2773676  98.2367206  52.8698278  43.1818428  97.1095512  52.4189468
  40.4630968 117.2163270  64.1387685  41.3658215 117.2486881  64.4554180
  40.2368338 116.2863721  64.1534020  42.2184570 115.9694257  60.7997763
  41.2680201 115.9696119  60.6862136  42.5217057 115.2226991  60.2833798
  46.1047126  93.8868143  56.9675943  45.3379522  93.3326630  57.1132626
  46.5157831  93.9590012  57.8290095  38.1088887 100.1752939  71.0581125
  38.9720349  99.8189744  71.2684449  37.5354298  99.8366834  71.7456529
  57.9537264 121.8054795  61.8643526  58.5915674 121.6861543  61.1606866
  57.8358107 122.7535639  61.9231478  54.7626970 121.7582223  61.8005050
  54.4245482 121.6423288  60.9125585  55.6316738 121.3573388  61.7806057
  52.4635250 120.5270471  51.1321991  52.7160770 120.0051992  50.3705454
  51.5259809 120.3636616  51.2348674  57.5078532 119.5306249  58.9396734
  58.2941622 119.1125672  58.5887151  57.7717237 120.4352341  59.1078382
  62.9086960 119.4681482  59.8429712  63.6412131 118.8980699  60.0767542
  62.1526315 119.0803083  60.2836218  54.5263079 121.8908724  57.0393055
  54.1621286 121.3639345  57.7505976  55.3830195 121.5007193  56.8659540
  60.4312380 113.1803056  64.3024321  60.0995705 114.0498467  64.0785536
  59.8357993 112.8639340  64.9818351  54.1668566 116.9198624  52.0354403
  54.3342969 117.7878860  52.4024874  53.9765735 117.0825905  51.1115692
  60.3241043 117.8998143  61.3817671  59.4157921 117.8313551  61.0876432
  60.2728639 118.3770088  62.2099496  54.1457787 119.3756281  53.0201070
  54.0257412 119.8213332  53.8586550  53.4510376 119.7241599  52.4614608
  54.3981909 119.3187788  69.3252568  53.6215243 119.8781708  69.3155433
  55.0372472 119.8044571  69.8467438  62.1902690 116.1014581  63.1595545
  61.5477070 116.3947114  62.5135339  61.6857618 115.9867501  63.9648742
  59.8442853 119.8477754  53.8481404  60.7560709 120.0805141  53.6729102
  59.3352500 120.4314798  53.2856483  54.4814691 119.2074989  64.8576254
  55.3275886 119.6314402  65.0010903  54.4213329 118.5508613  65.5514817
  57.6314136 116.8679357  66.5157427  57.3875068 117.6221418  65.9791703
  57.9074067 117.2464705  67.3504674  59.5852599 123.4117970  65.1934693
  59.7969494 124.0549729  64.5169074  59.5382347 122.5780286  64.7256623
  57.1878828 116.0235790  62.0971265  56.3263307 116.3217044  62.3888003
  57.2141263 116.2406189  61.1652298  52.9409284 120.6901133  55.3134636
  53.6433327 121.1422177  55.7808562  52.6089912 120.0484952  55.9414529
  51.3889645 119.2812890  69.6885845  50.7588306 119.9629171  69.9221242
  51.2825733 119.1695971  68.7438983  48.6349363 119.3129265  57.5735246
  47.8380526 119.4247959  58.0918742  48.4074955 119.6515917  56.7076137
  68.7904420 122.6328673  59.7142022  68.0368128 122.0636072  59.5586026
  68.9251961 122.5991338  60.6612656  50.6670388 113.5833656  72.0511096
  50.2737333 113.0299854  72.7258740  51.4836528 113.8944234  72.4417614
  53.5838349 114.9991535  69.6431353  54.3248062 115.5998688  69.5635815
  53.8156272 114.2569172  69.0849395  57.5295512 111.0272638  63.9195635
  57.1859781 111.9174279  63.8434745  57.8974474 110.8374295  63.0565220
  57.4945794 121.0181249  52.4268070  56.9792418 121.7885853  52.6656457
  57.2223103 120.3446385  53.0501131  55.0792905 115.8630950  57.4853308
  54.2234502 115.4737800  57.3058947  55.4919857 115.9422910  56.6253094
  56.6092052 113.3977293  61.8844868  56.1056848 113.3607428  61.0712673
  56.9022659 114.3070035  61.9441524  52.8534938 113.4816022  60.8911049
  53.7187935 113.2858831  60.5316939  52.9212447 113.2526374  61.8180406
  62.4680069 123.7713603  54.3621243  61.6909511 123.4324763  53.9176405
  63.1471550 123.7766227  53.6876208  57.2832098 118.8908341  54.2527851
  56.9782233 119.2054490  55.1037994  58.2362540 118.9689761  54.2955184
  60.7071375 123.2447585  61.0187851  60.0495050 123.9346846  61.1067980
  61.5111775 123.6344017  61.3621837  50.4597257 115.7118230  58.2627416
  51.0341009 115.4893412  57.5300609  51.0468240 115.7806925  59.0156018
  59.5176834 121.5991957  59.0691793  60.0308716 122.2321949  59.5713503
  60.1678058 120.9993153  58.7035153  50.7866844 117.7422691  52.2823302
  49.9504156 118.0797378  52.6032576  50.6471614 117.6071671  51.3450439
  52.7619925 112.5859479  56.9902486  52.1084337 112.2708496  56.3659100
  52.7200399 111.9635220  57.7162309  55.9957665 119.0741413  61.3150133
  55.0780227 119.2956360  61.1571821  56.4117809 119.1487723  60.4561841
  56.7792713 120.4732829  56.4452814  57.5264532 120.9854226  56.1359936
  57.0484302 120.1516881  57.3057207  59.2271550 117.5089945  58.4271603
  58.4894307 116.9967331  58.7581845  59.4798324 117.0690326  57.6154880
  59.3283177 110.2866197  59.0213372  59.6342054 109.4263560  58.7339287
  60.0535782 110.8783817  58.8212366  53.6004257 120.5819990  59.5289563
  53.6552867 119.6293826  59.4532040  52.7895459 120.7379429  60.0130862
  51.5396617 119.1997050  57.2879942  50.7264483 119.4991220  57.6945134
  52.0355611 118.8052738  58.0054424  57.1370829 119.6638874  66.1194836
  57.4920216 119.8910347  66.9789302  57.7842960 119.9957251  65.4972091
  62.8668566 122.7857310  56.8244165  62.7286464 122.9758906  55.8965354
  62.5104784 123.5476693  57.2812216  51.0310692 116.7715405  62.9041177
  51.6710071 116.6304164  62.2064140  50.1988222 116.4849919  62.5279779
  62.8937945 124.8533837  61.8355437  63.3274452 124.7609126  62.6838491
  63.6069526 124.8291337  61.1975453  48.0339308 116.7415730  57.6814164
  48.2946126 117.6561063  57.5723324  48.8556481 116.2740173  57.8310777
  49.5064234 118.1553487  64.8512988  50.1787287 117.9470849  64.2025637
  48.6794020 117.9575573  64.4118221  55.4089806 114.7815428  66.8678649
  54.7617721 115.4805378  66.7743126  56.1790821 115.2151572  67.2354897
  52.5374031 121.1416050  65.0999105  53.2473650 120.5009242  65.0585724
  52.4943340 121.3928944  66.0225286  51.2502965 118.1281267  66.9194745
  50.7140322 117.6772006  67.5716341  50.6619674 118.2627176  66.1765209
  50.6605224 117.5869919  49.4821208  49.7834691 117.4658720  49.1183455
  51.1362977 116.7955997  49.2300097  46.9842087 117.2637275  64.0047739
  46.9000275 116.6562945  63.2698149  46.1624793 117.7546293  64.0057236
  57.1565801 115.7490839  59.3717934  57.6534500 114.9960801  59.0519004
  56.3852782 115.7855155  58.8061144  65.0095558 121.4531204  61.0136226
  64.9985434 122.3355920  60.6430159  64.1412937 121.1002755  60.8190763
  53.7400769 117.8908222  59.0989619  53.3698557 117.3379262  59.7870524
  54.2359862 117.2866355  58.5464619  61.6268133 120.3479845  57.4806392
  62.0928585 121.1807837  57.4066694  62.0775633 119.8824827  58.1851650
  59.5984795 112.7160432  61.5197293  58.6847875 112.9464659  61.6879500
  60.0277897 112.7998876  62.3711325  59.3691254 120.9050324  64.0197187
  58.7162704 121.1526232  63.3649640  59.7471634 120.0914462  63.6859664
  55.4178827 121.6470135  70.5063224  54.7419464 121.5464265  71.1765599
  56.2406461 121.4909349  70.9699221  49.1366103 115.3012212  65.3442725
  49.2007429 116.1627043  64.9320123  49.0733223 114.6886214  64.6115083
  48.6118375 117.3735345  68.9915759  49.2390414 116.9912422  69.6053283
  47.7546294 117.1549547  69.3571452  48.9178165 117.2567771  60.9061663
  48.1964751 117.8703738  60.7669136  49.7071421 117.7925536  60.8278309
  51.7204479 114.5922197  67.1802314  52.2438881 114.8384494  67.9428624
  51.5016812 115.4242232  66.7605452  47.1171760 116.8625872  55.0473439
  46.7884466 115.9823251  54.8648545  47.4711131 116.8073540  55.9349828
  50.2313583 117.1498842  55.4148917  50.5709655 117.6784763  54.6927525
  50.6785703 117.4879248  56.1907483  52.9257024 115.5335892  64.8651985
  52.5853844 114.7343705  65.2672665  52.2196030 115.8337603  64.2928818
  53.5773496 112.6185205  63.3179308  54.3999565 112.1445683  63.1958198
  53.8211559 113.3975688  63.8177994  52.2181730 115.6473463  53.6142210
  52.9390093 116.0254716  53.1105926  51.5947034 116.3662340  53.7177188
  56.3612853 116.3518612  54.5500542  56.5776467 117.2343250  54.2489370
  55.8806920 115.9604826  53.8206184  51.1012074 119.3104325  61.1271287
  50.9556655 119.6244628  62.0195568  50.6237278 119.9289226  60.5742185
  52.9608457 116.3006873  61.1752176  52.9470026 115.4047967  60.8384474
  53.6780885 116.3077537  61.8090462  54.8134588 116.7344214  63.2205304
  54.5552366 117.6561284  63.2189634  54.2819628 116.3374648  63.9105768
  52.3645353 115.1821254  56.4439746  52.4861264 114.2537900  56.6430634
  52.0747396 115.1959940  55.5318062  55.2336544 112.8676164  59.5806466
  55.2558240 112.9315497  58.6258446  55.6504603 112.0280673  59.7746972
  65.6120168 122.6031424  57.6185689  66.0551314 121.8538749  57.2204812
  64.7346678 122.5941560  57.2359421  51.8486433 116.6953251  70.6529679
  51.8974588 117.5715374  70.2707448  52.3908947 116.1530644  70.0801322
  62.4539153 124.0886841  67.2463544  62.5037158 123.9236848  68.1879067
  62.3453077 123.2214100  66.8561425  59.7442916 120.0717769  68.5622851
  60.6452779 119.9324234  68.2706849  59.8190890 120.2372223  69.5021029
  54.0785721 117.4484623  67.4076037  53.2089031 117.7418189  67.1358626
  54.3145202 118.0325068  68.1283301  65.1553033 124.0736662  60.0108136
  65.9899924 124.5126466  60.1745697  65.2912161 123.5975315  59.1916382
  62.2044539 121.6316397  65.9585624  62.6798660 121.8244043  65.1504475
  61.2810104 121.6875583  65.7129008  56.7824755 113.6664240  64.9241458
  57.3006699 114.4025267  64.5987946  56.4279888 113.9728234  65.7588217
  48.3623693 118.5268922  53.0402864  47.6692938 118.6013277  52.3842900
  48.1175445 117.7629265  53.5624381  57.0337349 110.0864523  60.4442354
  57.3139103 109.4187712  61.0702781  57.8187956 110.2793618  59.9317018
  60.9046208 118.5082157  64.1913930  61.8563630 118.6080255  64.2126154
  60.7349658 117.7160425  64.7012014  58.9260587 115.5937740  64.3773330
  58.3310519 115.8742753  63.6819819  58.6410284 116.0831641  65.1490072
  63.3834285 121.7288277  63.3056229  63.3510605 120.7904277  63.4915913
  63.9934909 121.8072313  62.5722054  55.2217616 120.5984330  49.3483433
  56.1676721 120.4690538  49.4171851  54.8431861 119.8598991  49.8252861
  63.5328774 118.5199320  63.3514512  63.0167822 117.7357777  63.1644441
  64.4168722 118.1918037  63.5161032  61.1939501 112.2640336  59.3110325
  60.9964322 111.9555424  60.1953657  61.8039206 112.9901974  59.4408255
  69.2010835 122.7904283  62.4462266  69.9314224 122.5289572  63.0069969
  68.5917781 122.0533005  62.4864334  67.2826132 120.9312146  63.0436717
  66.5559296 120.7968111  62.4353209  66.8673419 121.2388975  63.8493435
  53.4060533 118.5234306  49.2838318  52.4991989 118.2267419  49.3601032
  53.6836514 118.2264124  48.4172605  55.0222599 113.0671196  55.4382560
  54.2123327 112.7218281  55.8137806  55.7107016 112.7578739  56.0270171
  56.9513147 112.1449242  57.0606856  57.5044186 112.5644696  57.7196880
  57.1883234 111.2184991  57.1029812  52.9746247 118.1336316  72.8409620
  52.8742973 119.0830673  72.7721711  52.7567789 117.8054555  71.9685690
  52.1759318 115.3821241  49.4250298  53.0378482 115.7076139  49.6846115
  52.3609662 114.5952737  48.9123363  60.3291954 114.2549768  56.5685521
  59.7490623 114.9134572  56.1863573  60.0627887 113.4327112  56.1572938
  58.7795521 113.6554825  58.7706841  59.2795299 113.7671360  57.9621160
  59.4231129 113.3515878  59.4107649  59.1116832 116.4149858  55.6241869
  58.2242687 116.6999509  55.4062064  59.5270822 116.2543621  54.7769146
  62.4631369 116.4396379  59.3396208  63.2391759 116.9292831  59.6120825
  61.7379503 116.8654433  59.7968078  64.9003927 117.1523998  60.3970149
  65.4948418 116.9119734  59.6863457  64.9730511 116.4331129  61.0243685
  59.0857856 121.9304394  55.8392159  59.0293058 122.3872945  54.9999792
  59.6386199 121.1695079  55.6615002  62.8962662 117.7194126  56.6642279
  62.6399596 117.3190761  57.4950486  62.2715530 118.4337920  56.5392418
  67.2075000 120.4590199  59.1713570  66.6474558 120.5283388  59.9445132
  66.6018503 120.2831184  58.4513066  59.8192636 123.1209175  53.1344688
  59.7641439 122.9553447  52.1933132  59.1938691 123.8285208  53.2906878
  53.1288761 112.6217284  52.7130007  53.1167431 113.5659124  52.8698278
  54.0212183 112.4387430  52.4189468  56.9440880 109.2160061  56.9675943
  56.1773276 108.6618548  57.1132626  57.3551585 109.2881930  57.8290095
  48.9482641 115.5044857  71.0581125  49.8114103 115.1481661  71.2684449
  48.3748052 115.1658751  71.7456529  70.1676932 125.6158114  59.0213372
  70.4735809 124.7555478  58.7339287  70.8929537 126.2075735  58.8212366
  67.8731104 125.4156441  60.4442354  68.1532857 124.7479630  61.0702781
  68.6581711 125.6085536  59.9317018  72.0333255 127.5932253  59.3110325
  71.8358076 127.2847341  60.1953657  72.6432961 128.3193892  59.4408255
  67.7834635 124.5451978  56.9675943  67.0167031 123.9910465  57.1132626
  68.1945340 124.6173847  57.8290095   3.7568493  22.1657330  48.5888832
   4.3946903  22.0464077  47.8852172   3.6389336  23.1138173  48.6476785
   1.0477982  23.2719609  54.4836563   1.0366623  22.8772408  53.6117066
   1.2098621  22.5385682  55.0770334   2.0044573  27.6391202  39.8261713
   1.3532553  28.2245282  39.4395727   2.7988936  28.1697397  39.8856750
   3.3109761  19.8908783  45.6642040   4.0972850  19.4728207  45.3132457
   3.5748466  20.7954876  45.8323689   3.4819839  25.3281634  40.3630697
   2.8465672  25.4016260  41.0751602   3.1517245  25.9175232  39.6849776
   8.7118188  19.8284017  46.5675019   9.4443360  19.2583233  46.8012848
   7.9557544  19.4405617  47.0081524   2.7275128  25.7418137  50.4265540
   2.4275851  26.6443175  50.3181347   2.3826188  25.4750320  51.2786693
   6.1272272  18.2600677  48.1062978   5.2189149  18.1916085  47.8121739
   6.0759868  18.7372622  48.9344803   7.9933918  16.4617115  49.8840851
   7.3508299  16.7549648  49.2380646   7.4888847  16.3470036  50.6894048
   5.6474082  20.2080288  40.5726711   6.5591938  20.4407675  40.3974408
   5.1383729  20.7917333  40.0101789   3.9314850  24.6304916  54.2088003
   4.3398206  24.1887327  53.4642636   3.2092111  24.0557544  54.4622196
   4.2543664  25.1906107  47.9640292   3.6252527  25.3551821  47.2616360
   3.8669326  25.6047716  48.7351256   8.1332896  26.1260545  45.3184656
   7.4483934  26.5059446  44.7681689   8.2176746  26.7355871  46.0516604
   3.4345365  17.2281891  53.2402734   3.1906297  17.9823952  52.7037010
   3.7105296  17.6067239  54.0749981   5.3883828  23.7720504  51.9179999
   5.6000723  24.4152264  51.2414381   5.3413576  22.9382820  51.4501930
   6.5029656  26.6492459  50.0902357   7.3247100  26.2472646  49.8085038
   6.4992059  26.5460693  51.0418473  14.5935649  22.9931208  46.4387328
  13.8399357  22.4238606  46.2831333  14.7283190  22.9593872  47.3857963
   1.6102753  28.4868176  56.2442390   1.1666608  27.7004555  55.9263294
   2.2719967  28.6747327  55.5786281   3.7083991  28.7670976  54.2723791
   3.6902467  29.5879857  53.7804060   4.6303911  28.6425052  54.4973932
   3.2977023  21.3783783  39.1513376   2.7823647  22.1488388  39.3901764
   3.0254332  20.7048919  39.7746438   8.2711297  24.1316138  41.0866550
   7.4940740  23.7927297  40.6421712   8.9502778  24.1368761  40.4121515
   3.0863326  19.2510875  40.9773157   2.7813462  19.5657024  41.8283301
   4.0393769  19.3292295  41.0200490   1.5309758  25.4101098  42.6266111
   1.0031120  24.6753858  42.3139349   1.0297261  26.1875775  42.3806080
   6.5102604  23.6050119  47.7433158   5.8526279  24.2949380  47.8313286
   7.3143003  23.9946551  48.0867144   5.3208063  21.9594492  45.7937099
   5.8339945  22.5924483  46.2958809   5.9709287  21.3595687  45.4280459
   2.5830437  31.9378816  38.5497771   1.9092136  32.2410513  39.1582728
   2.9696259  32.7407896  38.2003228   1.7988894  19.4343947  48.0395440
   0.8811455  19.6558894  47.8817128   2.2149038  19.5090258  47.1807147
   2.5823942  20.8335363  43.1698120   3.3295761  21.3456760  42.8605242
   2.8515531  20.5119415  44.0302514   6.0869859  26.9400493  43.9216242
   5.6332186  26.0991403  43.9781433   5.4563826  27.5761891  44.2591022
   5.0302779  17.8692479  45.1516910   4.2925536  17.3569865  45.4827152
   5.2829552  17.4292861  44.3400186   4.5302799  28.7776990  44.8566060
   4.8225773  29.3382047  44.1378426   5.0401419  29.0705551  45.6119219
   2.9402058  20.0241408  52.8440143   3.2951445  20.2512881  53.7034608
   3.5874189  20.3559785  52.2217398   8.6699794  23.1459844  43.5489472
   8.5317693  23.3361440  42.6210661   8.3136013  23.9079227  44.0057523
   8.6969174  25.2136371  48.5600743   9.1305681  25.1211660  49.4083797
   9.4100755  25.1893872  47.9220759   2.4297069  28.8138465  50.0933844
   2.4834091  29.3829402  50.8611560   1.5611850  28.9840350  49.7287881
   9.5584724  25.2560072  51.0933629   9.7520614  26.1605882  51.3392904
   9.4585342  24.7967491  51.9272214   4.6199832  25.4066815  56.6674509
   4.4685339  25.1777366  55.7504593   4.6104512  26.3637416  56.6805854
   1.3885169  22.9798727  51.6520776   2.3177229  23.1309887  51.4789743
   0.9676199  23.0682748  50.7969422   1.7378716  26.3830994  46.8108151
   1.4028548  26.3431764  47.7065801   1.2382661  25.7175710  46.3378561
   4.6737907  23.7287029  37.0845211   4.0567078  23.0033857  36.9878263
   4.2054396  24.4896389  36.7412285   6.3292039  28.4385937  54.7450991
   6.2704585  27.7545157  54.0781574   6.7311557  29.1804927  54.2931617
   6.3309446  26.4025521  52.9764971   5.4436225  26.0651443  53.0991370
   6.9007997  25.6708552  53.2133736  10.8126787  21.8133738  47.7381532
  10.8016663  22.6958454  47.3675465   9.9444166  21.4605289  47.5436069
   2.3209283  30.9613807  52.0984373   3.0337255  31.5961272  52.0260274
   1.8299312  31.0577673  51.2824374   4.0426810  24.8665060  43.6701664
   3.1083089  24.9866523  43.5006369   4.2203479  23.9637527  43.4061674
   7.4299361  20.7082379  44.2051698   7.8959814  21.5410371  44.1312001
   7.8806862  20.2427361  44.9096957   5.4975593  27.0526201  41.2037850
   5.7735436  26.9382795  42.1131725   4.6280091  26.6543686  41.1650024
   5.1722483  21.2652858  50.7442494   4.5193933  21.5128766  50.0894947
   5.5502863  20.4516997  50.4104971   2.1329657  31.3012552  44.8470664
   2.3152051  30.4834207  45.3098416   2.9562643  31.5180244  44.4095554
   2.4671822  30.2280737  42.1085713   2.9959588  29.7173191  41.4955875
   2.7300042  29.9123267  42.9731246   1.2210056  22.0072669  57.2308531
   0.5450693  21.9066799  57.9010906   2.0437690  21.8511883  57.6944528
   4.8143713  28.1400854  57.3214801   5.3583617  28.7530813  56.8269756
   4.2330558  28.6980433  57.8381814   3.1001226  31.2621572  48.4529829
   2.9752365  30.4611312  47.9440774   3.7580317  31.7567766  47.9643799
   5.1636134  29.0630593  50.0809379   4.2166470  28.9435944  50.0087706
   5.5118907  28.1753091  50.1635641   2.1682568  28.8583309  46.2813731
   2.0207530  27.9300016  46.4621301   2.9936061  28.8803399  45.7970807
   5.7716689  29.6811867  47.3678604   6.6963237  29.4754729  47.2303055
   5.6031993  29.4328269  48.2767946   5.5612006  30.1997535  42.7240696
   5.7348883  29.6343957  41.9714548   6.0540897  30.9998430  42.5420185
  11.4151397  22.9633958  44.3430995  11.8582543  22.2141283  43.9450119
  10.5377907  22.9544094  43.9604727   6.5487178  29.5164299  39.8237594
   7.2438083  30.1370992  40.0424908   6.8910328  28.6659651  40.0989972
   8.4478601  26.9664005  41.3524925   8.9729925  27.3051278  40.6274245
   8.3600954  26.0311020  41.1688059   8.1372507  27.5996908  56.6576123
   7.3468051  27.5821047  56.1180622   7.9005862  28.1385202  57.4125159
   8.2570382  24.4489375  53.9708851   8.3068387  24.2839382  54.9124374
   8.1484306  23.5816634  53.5806732   5.5474145  20.4320303  55.2868158
   6.4484007  20.2926768  54.9952156   5.6222119  20.5974758  56.2266335
   9.7588579  26.8686316  54.2150873   9.4673387  27.2316297  55.0514334
   9.1460710  26.1553325  54.0364205  10.9584261  24.4339196  46.7353443
  11.7931153  24.8729000  46.8991003  11.0943390  23.9577849  45.9161689
   8.0075767  21.9918931  52.6830931   8.4829889  22.1846577  51.8749782
   7.0841333  22.0478117  52.4374314   6.7077436  18.8684691  50.9159236
   7.6594859  18.9682789  50.9371460   6.5380887  18.0762960  51.4257321
   4.7291816  15.9540274  51.1018637   4.1341748  16.2345287  50.4065126
   4.4441513  16.4434175  51.8735378   3.8599306  29.9063201  39.8621270
   4.7929979  29.8408763  40.0654145   3.7722519  30.7419468  39.4035802
   6.4887323  29.2229071  36.8225217   6.4100954  28.8888935  37.7160975
   7.3096990  29.7150839  36.8216690   9.1865514  22.0890811  50.0301536
   9.1541834  21.1506812  50.2161220   9.7966138  22.1674847  49.2967361
   1.0248845  20.9586864  36.0728740   1.9707950  20.8293072  36.1417158
   0.6463090  20.2201526  36.5498168   9.3360003  18.8801854  50.0759819
   8.8199051  18.0960311  49.8889748  10.2199951  18.5520571  50.2406339
  15.0042064  23.1506818  49.1707573  15.7345452  22.8892106  49.7315276
  14.3949009  22.4135540  49.2109641  13.0857361  21.2914680  49.7682024
  12.3590525  21.1570645  49.1598515  12.6704648  21.5991509  50.5738742
   0.9087538  25.0104610  57.5329397   1.8290547  25.1883209  57.7269443
   0.8737121  24.0660655  57.3809096   4.9148061  16.7752392  42.3487176
   4.0273916  17.0602043  42.1307370   5.3302050  16.6146156  41.5014452
   8.2662597  16.7998913  46.0641515   9.0422988  17.2895366  46.3366132
   7.5410732  17.2256967  46.5213384  10.7035156  17.5126532  47.1215455
  11.2979647  17.2722268  46.4108764  10.7761740  16.7933663  47.7488992
   4.0591275  26.5397067  36.4435196   4.7627125  26.7447069  37.0592851
   3.3353923  27.1073829  36.7084279   4.8889085  22.2906928  42.5637466
   4.8324286  22.7475480  41.7245098   5.4417427  21.5297613  42.3860308
   8.6993891  18.0796660  43.3887585   8.4430825  17.6793296  44.2195793
   8.0746759  18.7940454  43.2637724  13.0106229  20.8192733  45.8958877
  12.4505787  20.8885923  46.6690439  12.4049732  20.6433718  45.1758373
   5.9677972  26.9779596  38.4933656   6.8023576  26.5460795  38.3111130
   5.8062315  26.8061610  39.4210550   5.6223864  23.4811709  39.8589995
   5.5672668  23.3155981  38.9178439   4.9969920  24.1887742  40.0152185
   2.9369771  25.7860621  59.1843558   3.8060931  25.9601274  58.8230193
   2.4576523  26.6055038  59.0619287  14.5962247  37.4949247  48.5888832
  15.2340657  37.3755995  47.8852172  14.4783090  38.4430091  48.6476785
  11.4051954  37.4476675  48.5250357  11.0670465  37.3317740  47.6370892
  12.2741722  37.0467840  48.5051363   7.2638769  39.3012152  44.5147248
   6.7003634  39.2102089  43.7463536   7.1491164  38.4812056  44.9949741
  11.8871737  38.6011527  54.4836563  11.8760377  38.2064325  53.6117066
  12.0492376  37.8677600  55.0770334   4.8103201  40.7963343  47.3531468
   5.6024493  40.4554168  46.9377768   5.0499851  40.9058318  48.2733622
  12.8438328  42.9683119  39.8261713  12.1926308  43.5537200  39.4395727
  13.6382691  43.4989314  39.8856750   6.7693955  40.0572257  40.2248847
   7.5424831  39.5101244  40.0861723   7.1219354  40.9216506  40.4363309
   8.6078998  41.3848639  53.4315747   8.3168864  42.2894270  53.3162413
   9.2435982  41.4265166  54.1459816   9.5335204  38.7625487  50.0217106
  10.1298777  38.5381510  49.3074069   9.5910176  38.0210233  50.6242554
   9.1060233  36.2164923  37.8567297   9.3585754  35.6946444  37.0950760
   8.1684792  36.0531068  37.9593981  14.1503516  35.2200701  45.6642040
  14.9366605  34.8020124  45.3132457  14.4142220  36.1246793  45.8323689
  14.3213593  40.6573551  40.3630697  13.6859426  40.7308178  41.0751602
  13.9910999  41.2467150  39.6849776  19.5511943  35.1575934  46.5675019
  20.2837115  34.5875151  46.8012848  18.7951299  34.7697535  47.0081524
   8.8256522  38.1193029  40.0591672   8.7092780  37.4437932  40.7272756
   8.9358782  37.6325403  39.2423825  11.1688063  37.5803176  43.7638361
  10.8046270  37.0533797  44.4751283  12.0255178  37.1901645  43.5904847
  17.0737363  28.8697508  51.0269628  16.7420688  29.7392919  50.8030842
  16.4782977  28.5533792  51.7063658  10.8093550  32.6093075  38.7599710
  10.9767952  33.4773312  39.1270181  10.6190719  32.7720357  37.8360999
  13.5668883  41.0710054  50.4265540  13.2669606  41.9735093  50.3181347
  13.2219942  40.8042238  51.2786693   7.0181364  37.5223851  46.4602245
   6.0931861  37.3900065  46.6679936   7.2665777  38.3018070  46.9572187
  16.9666027  33.5892595  48.1062978  16.0582904  33.5208003  47.8121739
  16.9153622  34.0664539  48.9344803  10.7882770  35.0650733  39.7446377
  10.6682396  35.5107784  40.5831857  10.0935359  35.4136051  39.1859915
   4.3790175  37.1657125  47.2946034   4.5082556  37.4191604  48.2085445
   3.6987627  37.7584833  46.9750689   8.5489663  47.8354375  43.3936508
   8.4713692  48.7862200  43.4724989   7.9451306  47.4900247  44.0511434
  11.0406892  35.0082240  56.0497875  10.2640226  35.5676160  56.0400739
  11.6797455  35.4939023  56.5712745  18.8327673  31.7909033  49.8840851
  18.1902053  32.0841566  49.2380646  18.3282601  31.6761953  50.6894048
  16.4867837  35.5372206  40.5726711  17.3985693  35.7699593  40.3974408
  15.9777484  36.1209250  40.0101789   9.2953265  37.8167693  55.6115842
  10.0367949  38.3552737  55.3350665   8.5890250  38.4433982  55.7687394
  14.7708604  39.9596834  54.2088003  15.1791960  39.5179244  53.4642636
  14.0485866  39.3849461  54.4622196  11.1239674  34.8969441  51.5821560
  11.9700869  35.3208854  51.7256209  11.0638312  34.2403065  52.2760123
  15.0937419  40.5198025  47.9640292  14.4646281  40.6843739  47.2616360
  14.7063081  40.9339634  48.7351256  18.9726651  41.4552462  45.3184656
  18.2877689  41.8351364  44.7681689  19.0570500  42.0647789  46.0516604
  14.2739120  32.5573809  53.2402734  14.0300051  33.3115870  52.7037010
  14.5499050  32.9359157  54.0749981  16.2277582  39.1012421  51.9179999
  16.4394478  39.7444181  51.2414381  16.1807331  38.2674738  51.4501930
  13.8303811  31.7130242  48.8216572  12.9688290  32.0111496  49.1133309
  13.8566246  31.9300641  47.8897604  10.6465381  40.2572433  45.2290377
  11.1103726  40.5360136  44.4395000  10.3822179  39.3555877  45.0463468
   7.5389462  39.8043914  48.1670141   8.1090819  40.2331183  47.5287625
   8.1297574  39.5226499  48.8654326   9.5834267  36.3795585  42.0379942
  10.2858310  36.8316629  42.5053869   9.2514895  35.7379404  42.6659836
   8.0314628  34.9707342  56.4131152   7.4013289  35.6523622  56.6466549
   7.9250716  34.8590423  55.4684290   3.3259601  34.6379138  47.3397076
   2.5358655  34.8936666  46.8637187   3.8170848  35.4527476  47.4449117
  17.3423410  41.9784377  50.0902357  18.1640854  41.5764564  49.8085038
  17.3385813  41.8752611  51.0418473   5.2774346  35.0023717  44.2980553
   4.4805509  35.1142411  44.8164048   5.0499938  35.3410369  43.4321443
  11.1080014  41.5268420  52.2463067  11.1724446  41.9888827  53.0821239
  10.3990938  40.8965785  52.3745377   1.6097304  34.8909628  49.7712067
   1.8605342  35.7756638  50.0369643   2.1456852  34.7114230  48.9987159
  25.4329403  38.3223125  46.4387328  24.6793112  37.7530523  46.2831333
  25.5676945  38.2885790  47.3857963  10.8228031  43.1936528  42.1142048
  10.6873706  44.0388063  42.5426895  11.3637844  43.3955805  41.3507981
   7.3095371  29.2728107  58.7756403   6.9162317  28.7194306  59.4504047
   8.1261511  29.5838686  59.1662920   4.2757429  40.7111966  42.6869973
   4.7881949  41.5055216  42.8375537   4.9280142  40.0138256  42.6203574
   6.0852314  43.8277722  44.7692726   6.2618942  44.7495687  44.5813710
   6.8809147  43.5136141  45.1987106  10.2263332  30.6885987  56.3676659
  10.9673045  31.2893140  56.2881122  10.4581255  29.9463624  55.8094702
   5.3704670  35.8742354  54.6454889   5.2558185  34.9727611  54.9461988
   4.5149188  36.1206051  54.2939706  12.4496508  43.8160094  56.2442390
  12.0060362  43.0296473  55.9263294  13.1113721  44.0039245  55.5786281
   7.2083629  45.3455896  50.7703068   7.7591054  45.2172959  49.9980062
   6.3695105  45.6450785  50.4197961  14.5477746  44.0962894  54.2723791
  14.5296221  44.9171775  53.7804060  15.4697666  43.9716969  54.4973932
  11.0050800  41.6107024  55.1147299  11.5379137  40.8495312  54.8846607
  10.4764881  41.3180675  55.8571454  14.1720495  26.7167090  50.6440941
  13.8284764  27.6068731  50.5680052  14.5399458  26.5268747  49.7810526
   2.2406346  39.0400620  43.4629543   3.0781568  39.4497628  43.2463251
   2.4184613  38.1000062  43.4329737  14.1370778  36.7075701  39.1513376
  13.6217401  37.4780305  39.3901764  13.8648086  36.0340837  39.7746438
  11.7217889  31.5525401  44.2098615  10.8659485  31.1632252  44.0304253
  12.1344841  31.6317362  43.3498400  13.2517035  29.0871745  48.6090174
  12.7481831  29.0501880  47.7957980  13.5447642  29.9964487  48.6686831
   9.4959921  29.1710474  47.6156356  10.3612918  28.9753283  47.2562246
   9.5637430  28.9420826  48.5425713  19.1105052  39.4608055  41.0866550
  18.3334495  39.1219215  40.6421712  19.7896533  39.4660678  40.4121515
  13.9257081  34.5802793  40.9773157  13.6207216  34.8948942  41.8283301
  14.8787523  34.6584213  41.0200490  12.3703513  40.7393016  42.6266111
  11.8424874  40.0045776  42.3139349  11.8691015  41.5167692  42.3806080
  17.3496359  38.9342037  47.7433158  16.6920033  39.6241298  47.8313286
  18.1536758  39.3238468  48.0867144   7.1022240  31.4012682  44.9872723
   7.6765992  31.1787864  44.2545916   7.6893223  31.4701377  45.7401324
  16.1601818  37.2886409  45.7937099  16.6733699  37.9216401  46.2958809
  16.8103041  36.6887605  45.4280459   7.4291827  33.4317143  39.0068608
   6.5929140  33.7691830  39.3277883   7.2896597  33.2966123  38.0695745
   9.4044908  28.2753931  43.7147792   8.7509320  27.9602948  43.0904407
   9.3625382  27.6529672  44.4407615  10.5156113  38.5573226  35.6301084
   9.6083175  38.3262480  35.8292233  11.0127145  37.7610846  35.8175066
  13.4224192  47.2670733  38.5497771  12.7485891  47.5702430  39.1582728
  13.8090014  48.0699814  38.2003228  12.6382648  34.7635865  48.0395440
  11.7205210  34.9850812  47.8817128  13.0542792  34.8382175  47.1807147
  13.4217696  36.1627280  43.1698120  14.1689515  36.6748678  42.8605242
  13.6909286  35.8411333  44.0302514  11.6944346  38.6585821  40.1525075
  10.7855566  38.3744854  40.2497544  11.7239430  39.0784900  39.2928381
  16.9263614  42.2692411  43.9216242  16.4725941  41.4283321  43.9781433
  16.2957580  42.9053809  44.2591022  15.8696533  33.1984397  45.1516910
  15.1319290  32.6861783  45.4827152  16.1223307  32.7584778  44.3400186
  15.3696553  44.1068907  44.8566060  15.6619527  44.6673964  44.1378426
  15.8795174  44.3997468  45.6119219  15.9708161  25.9760649  45.7458679
  16.2767037  25.1158012  45.4584594  16.6960765  26.5678269  45.5457673
   2.2632517  36.3791335  44.1340277   2.0656917  35.7860696  43.4091343
   1.7079181  36.0743545  44.8516216  10.2429240  36.2714442  46.2534870
  10.2977850  35.3188278  46.1777346   9.4320442  36.4273881  46.7376168
  11.3920434  40.1994565  37.4913153  10.9539864  39.4830424  37.0318790
  12.1330875  40.4270680  36.9298244   8.1821600  34.8891502  44.0125249
   7.3689466  35.1885672  44.4190441   8.6780595  34.4947190  44.7299731
  10.3330178  44.8849258  45.9459513  10.2906357  45.1110105  45.0168045
  11.2492877  44.6512633  46.0945315  13.7795812  35.3533326  52.8440143
  14.1345200  35.5804799  53.7034608  14.4267943  35.6851703  52.2217398
  19.5093549  38.4751762  43.5489472  19.3711448  38.6653358  42.6210661
  19.1529768  39.2371145  44.0057523   7.6735675  32.4609857  49.6286484
   8.3135054  32.3198616  48.9309447   6.8413206  32.1744370  49.2525086
  19.5362929  40.5428289  48.5600743  19.9699435  40.4503578  49.4083797
  20.2494509  40.5185789  47.9220759   8.4495979  41.7612287  45.7421476
   9.2436577  41.2662608  45.5404051   7.7387671  41.2330151  45.3789182
  13.2690823  44.1430383  50.0933844  13.3227846  44.7121319  50.8611560
  12.4005605  44.3132268  49.7287881   4.7578742  35.9055369  41.8181229
   3.8276331  35.8439825  42.0351191   4.8536214  35.3831322  41.0217870
   4.6764292  32.4310182  44.4059471   4.9371109  33.3455515  44.2968631
   5.4981464  31.9634625  44.5556083   6.1489217  33.8447939  51.5758295
   6.8212270  33.6365301  50.9270944   5.3219003  33.6470025  51.1363527
  20.3978478  40.5851990  51.0933629  20.5914368  41.4897800  51.3392904
  20.2979096  40.1259409  51.9272214  12.0514789  30.4709880  53.5923956
  11.4042704  31.1699830  53.4988432  12.8215804  30.9046024  53.9600204
  15.4593587  40.7358732  56.6674509  15.3079093  40.5069284  55.7504593
  15.4498266  41.6929334  56.6805854  12.2278923  38.3090645  51.6520776
  13.1570983  38.4601805  51.4789743  11.8069953  38.3974666  50.7969422
  11.0267255  42.3341309  49.4219313  10.8878341  41.9660094  50.2945251
  10.2381851  42.8488949  49.2503271  11.6215407  47.4350406  40.7644850
  11.7967163  46.9638449  41.5790472  10.9348195  48.0616172  40.9926111
  12.5772470  41.7122912  46.8108151  12.2422303  41.6723682  47.7065801
  12.0776416  41.0467628  46.3378561   6.5516714  37.1190542  52.3360732
   6.4136512  36.3870781  52.9372271   7.4621638  37.0299442  52.0544920
  15.5131662  39.0578946  37.0845211  14.8960832  38.3325775  36.9878263
  15.0448150  39.8188307  36.7412285   9.1799015  36.8310501  51.8244412
   9.8898633  36.1903694  51.7831030   9.1368323  37.0823396  52.7470593
  17.1685793  43.7677855  54.7450991  17.1098340  43.0837075  54.0781574
  17.5705312  44.5096845  54.2931617   7.8927949  33.8175719  53.6440051
   7.3565306  33.3666458  54.2961648   7.3044657  33.9521628  52.9010516
   6.1876492  50.5839769  47.5384710   6.4273090  51.2158293  48.2163729
   5.3445689  50.2327809  47.8250069   7.3030208  33.2764371  36.2066515
   6.4259674  33.1553172  35.8428762   7.7787961  32.4850449  35.9545404
  17.1703201  41.7317439  52.9764971  16.2829979  41.3943361  53.0991370
  17.7401752  41.0000470  53.2133736   3.6267070  32.9531727  50.7293046
   3.5425259  32.3457397  49.9943456   2.8049776  33.4440745  50.7302542
  10.7004354  46.3918891  49.9426214  10.6274526  47.1973863  50.4545518
  10.2581747  46.5910857  49.1174235  10.4894134  45.6290661  43.4529035
   9.7061656  46.1712341  43.5467260  11.1886879  46.1464641  43.8523277
  13.7990784  31.4385291  46.0963241  14.2959483  30.6855253  45.7764311
  13.0277765  31.4749607  45.5306450  21.6520541  37.1425656  47.7381532
  21.6410417  38.0250372  47.3675465  20.7837921  36.7897207  47.5436069
  13.1603038  46.2905725  52.0984373  13.8731010  46.9253190  52.0260274
  12.6693066  46.3869591  51.2824374  14.8820565  40.1956978  43.6701664
  13.9476843  40.3158440  43.5006369  15.0597233  39.2929445  43.4061674
  10.3825753  33.5802674  45.8234925  10.0123540  33.0273714  46.5115831
  10.8784845  32.9760807  45.2709926  18.2693116  36.0374297  44.2051698
  18.7353568  36.8702289  44.1312001  18.7200616  35.5719279  44.9096957
   8.2114951  44.0400169  52.9189943   8.9124411  44.6736652  53.0719338
   7.7410066  44.3814900  52.1585583  16.3369347  42.3818118  41.2037850
  16.6129191  42.2674713  42.1131725  15.4673846  41.9835603  41.1650024
  16.2409779  28.4054884  48.2442600  15.3272858  28.6359111  48.4124807
  16.6702880  28.4893328  49.0956632  16.0116237  36.5944776  50.7442494
  15.3587687  36.8420684  50.0894947  16.3896617  35.7808914  50.4104971
  12.9723411  46.6304469  44.8470664  13.1545806  45.8126125  45.3098416
  13.7956397  46.8472161  44.4095554  13.3065577  45.5572654  42.1085713
  13.8353343  45.0465109  41.4955875  13.5693796  45.2415185  42.9731246
  12.0603810  37.3364587  57.2308531  11.3844447  37.2358716  57.9010906
  12.8831444  37.1803801  57.6944528   3.8082669  43.5736524  49.8521046
   4.3936106  42.8280212  49.9848950   3.6107508  43.8840480  50.7357710
   6.6621324  46.6087771  44.8683488   5.9931700  47.0933899  44.3847529
   6.5234194  46.8556991  45.7826867  10.8026593  48.6431515  51.4666147
  11.3544901  48.8063136  52.2315232  11.1432786  49.2335952  50.7946172
   5.7791086  30.9906664  52.0688032   5.8432413  31.8521495  51.6565429
   5.7158206  30.3780666  51.3360390   5.2543359  33.0629797  55.7161066
   5.8815398  32.6806874  56.3298590   4.3971278  32.8443999  56.0816758
  15.6537467  43.4692772  57.3214801  16.1977371  44.0822730  56.8269756
  15.0724312  44.0272350  57.8381814   2.0308902  34.8706226  41.6479421
   2.3262343  33.9616904  41.5946474   1.1296937  34.8493965  41.3260423
  13.9394980  46.5913490  48.4529829  13.8146120  45.7903230  47.9440774
  14.5974071  47.0859683  47.9643799   5.5603149  32.9462223  47.6306969
   4.8389734  33.5598190  47.4914443   6.3496404  33.4819987  47.5523615
  16.0029889  44.3922510  50.0809379  15.0560224  44.2727861  50.0087706
  16.3512662  43.5045008  50.1635641   8.3629462  30.2816649  53.9047621
   8.8863864  30.5278946  54.6673930   8.1441795  31.1136684  53.4850758
   3.7596743  32.5520324  41.7718746   3.4309449  31.6717703  41.5893852
   4.1136114  32.4967992  42.6595135  13.0076322  44.1875226  46.2813731
  12.8601284  43.2591934  46.4621301  13.8329815  44.2095317  45.7970807
   6.8738566  32.8393293  42.1394223   7.2134639  33.3679215  41.4172832
   7.3210687  33.1773700  42.9152790  16.6110444  45.0103785  47.3678604
  17.5356991  44.8046646  47.2303055  16.4425747  44.7620186  48.2767946
   9.5682007  31.2230344  51.5897292   9.2278827  30.4238157  51.9917971
   8.8621013  31.5232055  51.0174125  10.2198479  28.3079657  50.0424615
  11.0424548  27.8340135  49.9203505  10.4636542  29.0870140  50.5423301
   8.8606713  31.3367915  40.3387516   9.5815076  31.7149168  39.8351233
   8.2372018  32.0556792  40.4422494  13.0037836  32.0413064  41.2745849
  13.2201451  32.9237702  40.9734677  12.5231903  31.6499277  40.5451491
   7.7437058  34.9998777  47.8516593   7.5981638  35.3139080  48.7440875
   7.2662261  35.6183678  47.2987492   9.6033441  31.9901325  47.8997483
   9.5895009  31.0942419  47.5629781  10.3205869  31.9971989  48.5335769
  11.4559571  32.4238665  49.9450610  11.1977349  33.3455736  49.9434941
  10.9244612  32.0269100  50.6351074  16.4005760  45.5289453  42.7240696
  16.5742638  44.9635875  41.9714548  16.8934651  46.3290347  42.5420185
   2.2182720  37.5404122  50.7904254   1.6736188  38.3163930  50.9224529
   3.0962070  37.8874926  50.6323376   9.0070336  30.8715706  43.1685053
   9.1286248  29.9432352  43.3675940   8.7172379  30.8854391  42.2563368
  11.8761527  28.5570616  46.3051773  11.8983224  28.6209949  45.3503752
  12.2929586  27.7175125  46.4992279  22.2545151  38.2925876  44.3430995
  22.6976297  37.5433201  43.9450119  21.3771661  38.2836012  43.9604727
  17.3880933  44.8456217  39.8237594  18.0831837  45.4662910  40.0424908
  17.7304083  43.9951568  40.0989972   3.0048742  36.6674018  53.6834411
   2.2630478  36.8156653  54.2699042   2.6841486  36.9282284  52.8201161
  19.2872356  42.2955923  41.3524925  19.8123680  42.6343195  40.6274245
  19.1994708  41.3602938  41.1688059  10.9492404  46.2089996  53.4814801
  11.2579531  45.9639143  54.3537501  11.7467886  46.4136635  52.9933671
  10.9713016  48.3627906  45.7120178  10.5318007  47.8704284  46.4053034
  11.7221133  47.8200873  45.4712253   3.4505355  44.5539447  45.7144806
   4.2763375  44.2543219  45.3343449   3.0999407  43.7847069  46.1634594
   8.4186889  43.9065915  47.7842479   7.7966898  43.2436620  47.4844707
   9.0891755  43.9327047  47.1016127   1.6513960  42.4725773  46.6733739
   0.8145869  42.0447947  46.4917741   1.6237606  42.6658216  47.6104531
   8.4911416  32.3847703  57.3774985   8.5399572  33.2609826  56.9952755
   9.0333930  31.8425096  56.8046629  18.9766262  42.9288826  56.6576123
  18.1861805  42.9112965  56.1180622  18.7399616  43.4677120  57.4125159
  19.0964137  39.7781293  53.9708851  19.1462142  39.6131300  54.9124374
  18.9878060  38.9108552  53.5806732   7.9800395  42.4569838  41.2600940
   8.1288516  43.1405303  40.6067613   8.7866839  42.4374928  41.7750396
  16.3867899  35.7612221  55.2868158  17.2877762  35.6218685  54.9952156
  16.4615874  35.9266675  56.2266335  10.7210704  33.1379075  54.1321344
   9.8514014  33.4312641  53.8603933  10.9570185  33.7219520  54.8528608
  20.5982334  42.1978234  54.2150873  20.3067142  42.5608215  55.0514334
  19.9854465  41.4845242  54.0364205  21.7978016  39.7631114  46.7353443
  22.6324907  40.2020918  46.8991003  21.9337145  39.2869767  45.9161689
  18.8469522  37.3210849  52.6830931  19.3223643  37.5138495  51.8749782
  17.9235087  37.3770034  52.4374314   5.7353028  38.4835016  42.2662009
   5.4899070  37.5797346  42.4642219   5.9048943  38.4852166  41.3241487
  13.4249738  29.3558692  51.6486765  13.9431682  30.0919719  51.3233253
  13.0704871  29.6622686  52.4833524   5.0048676  34.2163373  39.7648170
   4.3117921  34.2907728  39.1088206   4.7600428  33.4523717  40.2869687
  13.6762332  25.7758975  47.1687661  13.9564086  25.1082164  47.7948088
  14.4612939  25.9688070  46.6562325  11.4795801  44.9517969  38.7312687
  10.9069768  45.5708156  38.2783159  12.0528595  45.5017330  39.2652609
  17.5471191  34.1976609  50.9159236  18.4988614  34.2974706  50.9371460
  17.3774641  33.4054877  51.4257321  15.5685570  31.2832192  51.1018637
  14.9735502  31.5637205  50.4065126  15.2835267  31.7726093  51.8735378
  14.6993061  45.2355119  39.8621270  15.6323734  45.1700680  40.0654145
  14.6116274  46.0711386  39.4035802  17.3281077  44.5520989  36.8225217
  17.2494709  44.2180853  37.7160975  18.1490744  45.0442757  36.8216690
  20.0259269  37.4182728  50.0301536  19.9935589  36.4798729  50.2161220
  20.6359892  37.4966765  49.2967361  11.8642599  36.2878781  36.0728740
  12.8101704  36.1584990  36.1417158  11.4856844  35.5493443  36.5498168
  20.1753757  34.2093772  50.0759819  19.6592806  33.4252229  49.8889748
  21.0593706  33.8812488  50.2406339  17.8364484  27.9534787  46.0355632
  17.6389305  27.6449876  46.9198964  18.4464190  28.6796426  46.1653562
  25.8435818  38.4798735  49.1707573  26.5739207  38.2184023  49.7315276
  25.2342764  37.7427457  49.2109641  23.9251116  36.6206598  49.7682024
  23.1984279  36.4862563  49.1598515  23.5098402  36.9283426  50.5738742
  11.7481292  40.3396528  57.5329397  12.6684301  40.5175127  57.7269443
  11.7130875  39.3952573  57.3809096  10.0485517  34.2128758  36.0083625
   9.1416972  33.9161871  36.0846339  10.3261498  33.9158576  35.1417911
   0.9663457  35.5335121  46.4582672   0.6466241  34.6800429  46.1657046
   0.4196885  35.7483699  47.2140639   4.7443365  38.2497562  50.1752178
   4.9629374  39.1814670  50.1940212   5.1569138  37.8905537  50.9606982
  11.6647582  28.7565648  42.1627866  10.8548311  28.4112732  42.5383112
  12.3531999  28.4473191  42.7515478  13.5938131  27.8343694  43.7852163
  14.1469169  28.2539148  44.4442186  13.8308217  26.9079442  43.8275119
   9.6171230  33.8230768  59.5654927   9.5167957  34.7725125  59.4967018
   9.3992772  33.4949007  58.6930997   8.8184301  31.0715693  36.1495604
   9.6803465  31.3970591  36.4091422   9.0034645  30.2847189  35.6368670
  16.9716938  29.9444219  43.2930827  16.3915607  30.6029024  42.9108880
  16.7052870  29.1221564  42.8818245  15.4220504  29.3449277  45.4952148
  15.9220282  29.4565812  44.6866466  16.0656112  29.0410330  46.1352956
   9.4802500  37.2527907  58.3819989   8.9969582  38.0528267  58.5883878
   9.5663439  37.2635852  57.4287433   2.7488460  39.0856286  46.3041808
   2.7259148  39.1843974  45.3523691   3.0589096  39.9321437  46.6258974
   5.4075837  41.1432442  50.4188422   6.3619091  41.1116384  50.3518354
   5.2088361  40.6823065  51.2338648   5.9975220  39.7133558  52.9859220
   6.8168109  40.2077636  53.0094057   6.2712027  38.7965526  52.9576788
  15.7541816  32.1044310  42.3487176  14.8667671  32.3893960  42.1307370
  16.1695805  31.9438073  41.5014452  19.1056352  32.1290831  46.0641515
  19.8816742  32.6187283  46.3366132  18.3804486  32.5548885  46.5213384
  21.5428911  32.8418450  47.1215455  22.1373401  32.6014186  46.4108764
  21.6155494  32.1225581  47.7488992   3.7626066  46.6852061  47.4358620
   3.6280534  45.9252462  46.8696618   3.3458128  47.4092961  46.9687409
  14.8985029  41.8688985  36.4435196  15.6020879  42.0738987  37.0592851
  14.1747678  42.4365746  36.7084279  15.7282839  37.6198846  42.5637466
  15.6718041  38.0767397  41.7245098  16.2811182  36.8589530  42.3860308
  19.5387645  33.4088578  43.3887585  19.2824580  33.0085213  44.2195793
  18.9140513  34.1232372  43.2637724  23.8499983  36.1484651  45.8958877
  23.2899541  36.2177840  46.6690439  23.2443487  35.9725636  45.1758373
   6.9195192  47.5821378  47.6477063   6.8027576  48.5266811  47.5455753
   6.0987638  47.2794940  48.0362862  16.8071727  42.3071514  38.4933656
  17.6417331  41.8752712  38.3111130  16.6456070  42.1353527  39.4210550
  16.4617619  38.8103627  39.8589995  16.4066423  38.6447898  38.9178439
  15.8363674  39.5179660  40.0152185   1.2510134  34.0471691  53.6851417
   1.8968997  33.5370645  54.1738642   1.0427285  34.7840373  54.2594842
  13.7763526  41.1152539  59.1843558  14.6454686  41.2893191  58.8230193
  13.2970277  41.9346956  59.0619287   9.7713744  28.3111736  39.4375313
   9.7592414  29.2553576  39.5943584  10.6637166  28.1281881  39.1434775
   7.9449706  48.2349640  50.8632991   8.8476953  48.2673250  51.1799486
   7.7187076  47.3050091  50.8779327   9.7003308  46.9880626  47.5243070
   8.7498939  46.9882488  47.4107442  10.0035794  46.2413361  47.0079105
  13.5865864  24.9054513  43.6921250  12.8198260  24.3512999  43.8377932
  13.9976569  24.9776381  44.5535402   5.5907625  31.1939308  57.7826431
   6.4539086  30.8376113  57.9929756   5.0173035  30.8553203  58.4701836
  25.4356002  52.8241165  48.5888832  26.0734412  52.7047912  47.8852172
  25.3176845  53.7722009  48.6476785  22.2445708  52.7768593  48.5250357
  21.9064220  52.6609658  47.6370892  23.1135476  52.3759758  48.5051363
  18.1032524  54.6304069  44.5147248  17.5397389  54.5394006  43.7463536
  17.9884919  53.8103974  44.9949741  22.7265491  53.9303445  54.4836563
  22.7154132  53.5356243  53.6117066  22.8886130  53.1969517  55.0770334
  15.6496956  56.1255261  47.3531468  16.4418248  55.7846086  46.9377768
  15.8893606  56.2350236  48.2733622  23.6832082  58.2975037  39.8261713
  23.0320062  58.8829117  39.4395727  24.4776445  58.8281232  39.8856750
  17.6087710  55.3864174  40.2248847  18.3818586  54.8393161  40.0861723
  17.9613108  56.2508424  40.4363309  19.4472752  56.7140556  53.4315747
  19.1562618  57.6186187  53.3162413  20.0829736  56.7557084  54.1459816
  20.3728959  54.0917405  50.0217106  20.9692531  53.8673427  49.3074069
  20.4303931  53.3502150  50.6242554  19.9453987  51.5456840  37.8567297
  20.1979508  51.0238362  37.0950760  19.0078546  51.3822986  37.9593981
  24.9897270  50.5492619  45.6642040  25.7760359  50.1312042  45.3132457
  25.2535975  51.4538711  45.8323689  25.1607348  55.9865469  40.3630697
  24.5253181  56.0600096  41.0751602  24.8304754  56.5759068  39.6849776
  30.3905697  50.4867852  46.5675019  31.1230869  49.9167069  46.8012848
  29.6345053  50.0989452  47.0081524  19.6650276  53.4484946  40.0591672
  19.5486534  52.7729850  40.7272756  19.7752536  52.9617320  39.2423825
  22.0081817  52.9095093  43.7638361  21.6440024  52.3825714  44.4751283
  22.8648933  52.5193562  43.5904847  27.9131118  44.1989426  51.0269628
  27.5814442  45.0684837  50.8030842  27.3176731  43.8825710  51.7063658
  21.6487304  47.9384993  38.7599710  21.8161706  48.8065230  39.1270181
  21.4584473  48.1012275  37.8360999  24.4062637  56.4001972  50.4265540
  24.1063360  57.3027011  50.3181347  24.0613697  56.1334155  51.2786693
  17.8575119  52.8515769  46.4602245  16.9325615  52.7191983  46.6679936
  18.1059532  53.6309988  46.9572187  27.8059781  48.9184512  48.1062978
  26.8976658  48.8499921  47.8121739  27.7547377  49.3956457  48.9344803
  21.6276525  50.3942651  39.7446377  21.5076150  50.8399701  40.5831857
  20.9329113  50.7427968  39.1859915  15.2183930  52.4949042  47.2946034
  15.3476311  52.7483521  48.2085445  14.5381381  53.0876750  46.9750689
  19.3883417  63.1646292  43.3936508  19.3107447  64.1154117  43.4724989
  18.7845061  62.8192165  44.0511434  21.8800647  50.3374158  56.0497875
  21.1033981  50.8968078  56.0400739  22.5191210  50.8230941  56.5712745
  29.6721427  47.1200951  49.8840851  29.0295808  47.4133484  49.2380646
  29.1676356  47.0053871  50.6894048  27.3261591  50.8664124  40.5726711
  28.2379447  51.0991511  40.3974408  26.8171238  51.4501168  40.0101789
  20.1347019  53.1459611  55.6115842  20.8761703  53.6844655  55.3350665
  19.4284005  53.7725900  55.7687394  25.6102359  55.2888752  54.2088003
  26.0185715  54.8471162  53.4642636  24.8879620  54.7141379  54.4622196
  21.9633429  50.2261358  51.5821560  22.8094624  50.6500772  51.7256209
  21.9032066  49.5694983  52.2760123  25.9331173  55.8489942  47.9640292
  25.3040036  56.0135656  47.2616360  25.5456835  56.2631552  48.7351256
  29.8120405  56.7844380  45.3184656  29.1271443  57.1643281  44.7681689
  29.8964255  57.3939707  46.0516604  25.1132874  47.8865727  53.2402734
  24.8693806  48.6407787  52.7037010  25.3892805  48.2651074  54.0749981
  27.0671337  54.4304339  51.9179999  27.2788232  55.0736099  51.2414381
  27.0201085  53.5966656  51.4501930  24.6697566  47.0422160  48.8216572
  23.8082045  47.3403413  49.1133309  24.6960000  47.2592559  47.8897604
  21.4859135  55.5864350  45.2290377  21.9497481  55.8652053  44.4395000
  21.2215933  54.6847795  45.0463468  18.3783216  55.1335832  48.1670141
  18.9484573  55.5623100  47.5287625  18.9691328  54.8518417  48.8654326
  20.4228021  51.7087503  42.0379942  21.1252065  52.1608546  42.5053869
  20.0908650  51.0671322  42.6659836  18.8708383  50.2999259  56.4131152
  18.2407043  50.9815540  56.6466549  18.7644471  50.1882341  55.4684290
  14.1653355  49.9671055  47.3397076  13.3752409  50.2228584  46.8637187
  14.6564603  50.7819393  47.4449117  28.1817165  57.3076295  50.0902357
  29.0034609  56.9056482  49.8085038  28.1779568  57.2044529  51.0418473
  16.1168101  50.3315635  44.2980553  15.3199264  50.4434329  44.8164048
  15.8893693  50.6702287  43.4321443  21.9473768  56.8560338  52.2463067
  22.0118201  57.3180745  53.0821239  21.2384692  56.2257703  52.3745377
  12.4491058  50.2201546  49.7712067  12.6999097  51.1048556  50.0369643
  12.9850607  50.0406147  48.9987159  21.6621786  58.5228445  42.1142048
  21.5267461  59.3679981  42.5426895  22.2031598  58.7247723  41.3507981
  18.1489126  44.6020025  58.7756403  17.7556071  44.0486224  59.4504047
  18.9655266  44.9130604  59.1662920  15.1151183  56.0403883  42.6869973
  15.6275704  56.8347134  42.8375537  15.7673896  55.3430174  42.6203574
  16.9246068  59.1569640  44.7692726  17.1012696  60.0787604  44.5813710
  17.7202902  58.8428059  45.1987106  21.0657087  46.0177904  56.3676659
  21.8066800  46.6185057  56.2881122  21.2975009  45.2755542  55.8094702
  16.2098425  51.2034272  54.6454889  16.0951940  50.3019529  54.9461988
  15.3542942  51.4497968  54.2939706  23.2890262  59.1452012  56.2442390
  22.8454116  58.3588390  55.9263294  23.9507476  59.3331162  55.5786281
  18.0477383  60.6747813  50.7703068  18.5984809  60.5464877  49.9980062
  17.2088859  60.9742702  50.4197961  25.3871500  59.4254812  54.2723791
  25.3689976  60.2463693  53.7804060  26.3091420  59.3008887  54.4973932
  21.8444555  56.9398941  55.1147299  22.3772891  56.1787229  54.8846607
  21.3158636  56.6472593  55.8571454  25.0114250  42.0459007  50.6440941
  24.6678519  42.9360649  50.5680052  25.3793212  41.8560665  49.7810526
  13.0800100  54.3692538  43.4629543  13.9175322  54.7789546  43.2463251
  13.2578368  53.4291980  43.4329737  24.9764532  52.0367618  39.1513376
  24.4611156  52.8072223  39.3901764  24.7041841  51.3632754  39.7746438
  22.5611643  46.8817319  44.2098615  21.7053240  46.4924169  44.0304253
  22.9738595  46.9609280  43.3498400  24.0910790  44.4163662  48.6090174
  23.5875585  44.3793798  47.7957980  24.3841397  45.3256405  48.6686831
  20.3353676  44.5002392  47.6156356  21.2006673  44.3045201  47.2562246
  20.4031185  44.2712744  48.5425713  29.9498806  54.7899973  41.0866550
  29.1728249  54.4511132  40.6421712  30.6290287  54.7952596  40.4121515
  24.7650835  49.9094710  40.9773157  24.4600971  50.2240860  41.8283301
  25.7181278  49.9876130  41.0200490  23.2097267  56.0684934  42.6266111
  22.6818629  55.3337693  42.3139349  22.7084770  56.8459610  42.3806080
  28.1890113  54.2633954  47.7433158  27.5313788  54.9533216  47.8313286
  28.9930512  54.6530386  48.0867144  17.9415995  46.7304600  44.9872723
  18.5159747  46.5079781  44.2545916  18.5286977  46.7993294  45.7401324
  26.9995572  52.6178327  45.7937099  27.5127454  53.2508319  46.2958809
  27.6496796  52.0179522  45.4280459  18.2685582  48.7609061  39.0068608
  17.4322894  49.0983748  39.3277883  18.1290352  48.6258041  38.0695745
  20.2438663  43.6045849  43.7147792  19.5903075  43.2894866  43.0904407
  20.2019137  42.9821589  44.4407615  21.3549867  53.8865144  35.6301084
  20.4476929  53.6554397  35.8292233  21.8520899  53.0902763  35.8175066
  24.2617946  62.5962651  38.5497771  23.5879645  62.8994348  39.1582728
  24.6483768  63.3991732  38.2003228  23.4776403  50.0927782  48.0395440
  22.5598964  50.3142729  47.8817128  23.8936547  50.1674093  47.1807147
  24.2611451  51.4919198  43.1698120  25.0083270  52.0040595  42.8605242
  24.5303040  51.1703251  44.0302514  22.5338101  53.9877739  40.1525075
  21.6249320  53.7036772  40.2497544  22.5633185  54.4076817  39.2928381
  27.7657368  57.5984328  43.9216242  27.3119695  56.7575238  43.9781433
  27.1351335  58.2345727  44.2591022  26.7090288  48.5276314  45.1516910
  25.9713045  48.0153701  45.4827152  26.9617061  48.0876696  44.3400186
  26.2090308  59.4360825  44.8566060  26.5013282  59.9965882  44.1378426
  26.7188928  59.7289386  45.6119219  26.8101915  41.3052566  45.7458679
  27.1160792  40.4449930  45.4584594  27.5354520  41.8970187  45.5457673
  13.1026271  51.7083253  44.1340277  12.9050671  51.1152614  43.4091343
  12.5472935  51.4035463  44.8516216  21.0822995  51.6006359  46.2534870
  21.1371605  50.6480196  46.1777346  20.2714197  51.7565799  46.7376168
  22.2314189  55.5286483  37.4913153  21.7933619  54.8122341  37.0318790
  22.9724630  55.7562597  36.9298244  19.0215355  50.2183419  44.0125249
  18.2083220  50.5177590  44.4190441  19.5174349  49.8239108  44.7299731
  21.1723933  60.2141176  45.9459513  21.1300111  60.4402022  45.0168045
  22.0886632  59.9804551  46.0945315  24.6189567  50.6825244  52.8440143
  24.9738954  50.9096717  53.7034608  25.2661698  51.0143620  52.2217398
  30.3487303  53.8043680  43.5489472  30.2105202  53.9945276  42.6210661
  29.9923522  54.5663062  44.0057523  18.5129430  47.7901775  49.6286484
  19.1528809  47.6490534  48.9309447  17.6806960  47.5036288  49.2525086
  19.2889733  57.0904205  45.7421476  20.0830332  56.5954525  45.5404051
  18.5781426  56.5622068  45.3789182  24.1084578  59.4722301  50.0933844
  24.1621600  60.0413237  50.8611560  23.2399359  59.6424186  49.7287881
  15.5972497  51.2347287  41.8181229  14.6670085  51.1731742  42.0351191
  15.6929969  50.7123240  41.0217870  15.5158046  47.7602100  44.4059471
  15.7764863  48.6747433  44.2968631  16.3375218  47.2926542  44.5556083
  16.9882971  49.1739857  51.5758295  17.6606025  48.9657219  50.9270944
  16.1612758  48.9761943  51.1363527  31.2372233  55.9143907  51.0933629
  31.4308123  56.8189718  51.3392904  31.1372851  55.4551326  51.9272214
  22.8908543  45.8001798  53.5923956  22.2436458  46.4991747  53.4988432
  23.6609559  46.2337942  53.9600204  26.2987341  56.0650650  56.6674509
  26.1472848  55.8361202  55.7504593  26.2892021  57.0221251  56.6805854
  23.0672678  53.6382563  51.6520776  23.9964738  53.7893722  51.4789743
  22.6463708  53.7266583  50.7969422  21.8661009  57.6633227  49.4219313
  21.7272095  57.2952012  50.2945251  21.0775606  58.1780867  49.2503271
  22.4609161  62.7642324  40.7644850  22.6360917  62.2930367  41.5790472
  21.7741949  63.3908090  40.9926111  23.4166225  57.0414830  46.8108151
  23.0816057  57.0015600  47.7065801  22.9170170  56.3759546  46.3378561
  17.3910469  52.4482460  52.3360732  17.2530267  51.7162699  52.9372271
  18.3015392  52.3591360  52.0544920  26.3525416  54.3870864  37.0845211
  25.7354587  53.6617692  36.9878263  25.8841905  55.1480224  36.7412285
  20.0192769  52.1602419  51.8244412  20.7292388  51.5195611  51.7831030
  19.9762077  52.4115314  52.7470593  28.0079548  59.0969773  54.7450991
  27.9492094  58.4128993  54.0781574  28.4099066  59.8388763  54.2931617
  18.7321703  49.1467637  53.6440051  18.1959060  48.6958376  54.2961648
  18.1438412  49.2813546  52.9010516  17.0270247  65.9131686  47.5384710
  17.2666845  66.5450211  48.2163729  16.1839443  65.5619726  47.8250069
  18.1423962  48.6056288  36.2066515  17.2653429  48.4845089  35.8428762
  18.6181715  47.8142367  35.9545404  28.0096955  57.0609356  52.9764971
  27.1223734  56.7235278  53.0991370  28.5795506  56.3292388  53.2133736
   9.6626102  53.3933448  46.3008022  10.3497142  53.0795178  45.7129037
   9.5074231  54.2974813  46.0275274  14.4660824  48.2823645  50.7293046
  14.3819013  47.6749314  49.9943456  13.6443531  48.7732663  50.7302542
  21.5398109  61.7210809  49.9426214  21.4668280  62.5265780  50.4545518
  21.0975502  61.9202775  49.1174235  21.3287888  60.9582579  43.4529035
  20.5455410  61.5004259  43.5467260  22.0280633  61.4756558  43.8523277
  24.6384538  46.7677208  46.0963241  25.1353238  46.0147171  45.7764311
  23.8671520  46.8041525  45.5306450  23.9996792  61.6197643  52.0984373
  24.7124764  62.2545108  52.0260274  23.5086821  61.7161509  51.2824374
  25.7214319  55.5248896  43.6701664  24.7870598  55.6450358  43.5006369
  25.8990987  54.6221362  43.4061674  21.2219507  48.9094591  45.8234925
  20.8517295  48.3565632  46.5115831  21.7178600  48.3052725  45.2709926
  29.1086870  51.3666215  44.2051698  29.5747323  52.1994206  44.1312001
  29.5594371  50.9011196  44.9096957  19.0508706  59.3692086  52.9189943
  19.7518165  60.0028569  53.0719338  18.5803821  59.7106818  52.1585583
  27.1763101  57.7110036  41.2037850  27.4522945  57.5966631  42.1131725
  26.3067600  57.3127521  41.1650024  27.0803533  43.7346802  48.2442600
  26.1666613  43.9651029  48.4124807  27.5096635  43.8185246  49.0956632
  26.8509992  51.9236694  50.7442494  26.1981442  52.1712601  50.0894947
  27.2290372  51.1100832  50.4104971  23.8117165  61.9596387  44.8470664
  23.9939560  61.1418043  45.3098416  24.6350152  62.1764079  44.4095554
  24.1459331  60.8864572  42.1085713  24.6747097  60.3757027  41.4955875
  24.4087551  60.5707102  42.9731246  22.8997565  52.6656505  57.2308531
  22.2238202  52.5650634  57.9010906  23.7225199  52.5095719  57.6944528
  14.6476424  58.9028441  49.8521046  15.2329861  58.1572129  49.9848950
  14.4501262  59.2132398  50.7357710  17.5015079  61.9379689  44.8683488
  16.8325454  62.4225816  44.3847529  17.3627949  62.1848909  45.7826867
   9.2394078  51.4734042  48.5725489   9.2778178  50.9397632  49.3662607
   8.7334371  50.9469247  47.9536466  21.6420348  63.9723432  51.4666147
  22.1938656  64.1355054  52.2315232  21.9826541  64.5627870  50.7946172
  16.6184841  46.3198582  52.0688032  16.6826167  47.1813413  51.6565429
  16.5551961  45.7072584  51.3360390  16.0937113  48.3921715  55.7161066
  16.7209152  48.0098792  56.3298590  15.2365032  48.1735917  56.0816758
  26.4931222  58.7984690  57.3214801  27.0371126  59.4114648  56.8269756
  25.9118067  59.3564268  57.8381814  12.8702656  50.1998144  41.6479421
  13.1656097  49.2908822  41.5946474  11.9690692  50.1785883  41.3260423
  24.7788735  61.9205408  48.4529829  24.6539874  61.1195148  47.9440774
  25.4367826  62.4151601  47.9643799  16.3996903  48.2754140  47.6306969
  15.6783489  48.8890108  47.4914443  17.1890159  48.8111905  47.5523615
  26.8423643  59.7214428  50.0809379  25.8953979  59.6019779  50.0087706
  27.1906416  58.8336926  50.1635641  19.2023217  45.6108567  53.9047621
  19.7257618  45.8570863  54.6673930  18.9835550  46.4428602  53.4850758
  14.5990498  47.8812241  41.7718746  14.2703204  47.0009620  41.5893852
  14.9529868  47.8259910  42.6595135  23.8470076  59.5167144  46.2813731
  23.6995039  58.5883851  46.4621301  24.6723570  59.5387235  45.7970807
  17.7132321  48.1685211  42.1394223  18.0528393  48.6971132  41.4172832
  18.1604441  48.5065617  42.9152790  27.4504198  60.3395703  47.3678604
  28.3750746  60.1338564  47.2303055  27.2819502  60.0912104  48.2767946
  20.4075762  46.5522262  51.5897292  20.0672582  45.7530075  51.9917971
  19.7014768  46.8523973  51.0174125  21.0592233  43.6371574  50.0424615
  21.8818303  43.1632052  49.9203505  21.3030297  44.4162058  50.5423301
  19.7000468  46.6659833  40.3387516  20.4208830  47.0441086  39.8351233
  19.0765772  47.3848710  40.4422494  23.8431591  47.3704982  41.2745849
  24.0595205  48.2529620  40.9734677  23.3625658  46.9791195  40.5451491
  18.5830812  50.3290695  47.8516593  18.4375393  50.6430998  48.7440875
  18.1056016  50.9475595  47.2987492  20.4427195  47.3193243  47.8997483
  20.4288764  46.4234336  47.5629781  21.1599623  47.3263907  48.5335769
  22.2953326  47.7530583  49.9450610  22.0371104  48.6747654  49.9434941
  21.7638366  47.3561018  50.6351074  27.2399515  60.8581370  42.7240696
  27.4136392  60.2927793  41.9714548  27.7328406  61.6582265  42.5420185
  13.0576474  52.8696039  50.7904254  12.5129942  53.6455847  50.9224529
  13.9355824  53.2166844  50.6323376  19.8464091  46.2007623  43.1685053
  19.9680002  45.2724269  43.3675940  19.5566133  46.2146309  42.2563368
  22.7155281  43.8862534  46.3051773  22.7376978  43.9501867  45.3503752
  23.1323340  43.0467042  46.4992279  28.2274687  60.1748135  39.8237594
  28.9225592  60.7954827  40.0424908  28.5697837  59.3243486  40.0989972
  13.8442496  51.9965936  53.6834411  13.1024232  52.1448571  54.2699042
  13.5235240  52.2574201  52.8201161  30.1266110  57.6247840  41.3524925
  30.6517434  57.9635113  40.6274245  30.0388463  56.6894856  41.1688059
  21.7886159  61.5381914  53.4814801  22.0973285  61.2931061  54.3537501
  22.5861641  61.7428552  52.9933671  21.8106771  63.6919823  45.7120178
  21.3711761  63.1996202  46.4053034  22.5614888  63.1492791  45.4712253
  14.2899110  59.8831364  45.7144806  15.1157130  59.5835136  45.3343449
  13.9393162  59.1138987  46.1634594  19.2580643  59.2357833  47.7842479
  18.6360652  58.5728538  47.4844707  19.9285510  59.2618964  47.1016127
  12.4907715  57.8017691  46.6733739  11.6539623  57.3739865  46.4917741
  12.4631360  57.9950134  47.6104531  19.3305171  47.7139621  57.3774985
  19.3793326  48.5901743  56.9952755  19.8727685  47.1717014  56.8046629
  29.8160016  58.2580744  56.6576123  29.0255560  58.2404883  56.1180622
  29.5793371  58.7969038  57.4125159  29.9357891  55.1073210  53.9708851
  29.9855896  54.9423218  54.9124374  29.8271815  54.2400469  53.5806732
  18.8194150  57.7861756  41.2600940  18.9682270  58.4697220  40.6067613
  19.6260593  57.7666846  41.7750396  27.2261654  51.0904138  55.2868158
  28.1271516  50.9510603  54.9952156  27.3009628  51.2558593  56.2266335
  21.5604459  48.4670993  54.1321344  20.6907768  48.7604559  53.8603933
  21.7963939  49.0511438  54.8528608  31.4376088  57.5270152  54.2150873
  31.1460896  57.8900132  55.0514334  30.8248219  56.8137160  54.0364205
  29.6863276  52.6502766  52.6830931  30.1617398  52.8430413  51.8749782
  28.7628842  52.7061952  52.4374314  16.5746783  53.8126934  42.2662009
  16.3292825  52.9089264  42.4642219  16.7442697  53.8144084  41.3241487
  24.2643493  44.6850610  51.6486765  24.7825437  45.4211637  51.3233253
  23.9098626  44.9914603  52.4833524  15.8442430  49.5455291  39.7648170
  15.1511675  49.6199646  39.1088206  15.5994182  48.7815635  40.2869687
  24.5156087  41.1050892  47.1687661  24.7957841  40.4374082  47.7948088
  25.3006694  41.2979988  46.6562325  22.3189555  60.2809886  38.7312687
  21.7463523  60.9000073  38.2783159  22.8922349  60.8309248  39.2652609
  28.3864945  49.5268526  50.9159236  29.3382368  49.6266624  50.9371460
  28.2168396  48.7346795  51.4257321  26.4079325  46.6124110  51.1018637
  25.8129257  46.8929122  50.4065126  26.1229021  47.1018011  51.8735378
  25.5386815  60.5647036  39.8621270  26.4717488  60.4992598  40.0654145
  25.4510028  61.4003303  39.4035802  28.1674832  59.8812907  36.8225217
  28.0888463  59.5472770  37.7160975  28.9884499  60.3734675  36.8216690
  30.8653023  52.7474646  50.0301536  30.8329343  51.8090647  50.2161220
  31.4753647  52.8258683  49.2967361  22.7036354  51.6170699  36.0728740
  23.6495459  51.4876907  36.1417158  22.3250599  50.8785361  36.5498168
  31.0147512  49.5385690  50.0759819  30.4986560  48.7544146  49.8889748
  31.8987460  49.2104406  50.2406339  28.6758239  43.2826705  46.0355632
  28.4783060  42.9741793  46.9198964  29.2857944  44.0088344  46.1653562
  22.5875047  55.6688445  57.5329397  23.5078056  55.8467044  57.7269443
  22.5524630  54.7244491  57.3809096  20.8879271  49.5420675  36.0083625
  19.9810727  49.2453788  36.0846339  21.1655252  49.2450494  35.1417911
  11.8057212  50.8627039  46.4582672  11.4859996  50.0092347  46.1657046
  11.2590640  51.0775617  47.2140639  15.5837119  53.5789480  50.1752178
  15.8023129  54.5106588  50.1940212  15.9962893  53.2197454  50.9606982
  22.5041337  44.0857565  42.1627866  21.6942065  43.7404650  42.5383112
  23.1925754  43.7765109  42.7515478  24.4331885  43.1635612  43.7852163
  24.9862924  43.5831065  44.4442186  24.6701971  42.2371360  43.8275119
  20.4564984  49.1522686  59.5654927  20.3561711  50.1017043  59.4967018
  20.2386526  48.8240925  58.6930997  19.6578056  46.4007611  36.1495604
  20.5197220  46.7262509  36.4091422  19.8428400  45.6139107  35.6368670
  11.6745472  54.4829950  48.4275793  10.9808943  54.0683903  47.9145748
  12.4218463  54.5250487  47.8309212  27.8110692  45.2736137  43.2930827
  27.2309361  45.9320941  42.9108880  27.5446625  44.4513482  42.8818245
  26.2614259  44.6741195  45.4952148  26.7614037  44.7857729  44.6866466
  26.9049867  44.3702248  46.1352956  20.3196254  52.5819824  58.3819989
  19.8363336  53.3820185  58.5883878  20.4057193  52.5927769  57.4287433
  13.5882214  54.4148204  46.3041808  13.5652902  54.5135891  45.3523691
  13.8982851  55.2613355  46.6258974  16.2469592  56.4724359  50.4188422
  17.2012845  56.4408302  50.3518354  16.0482115  56.0114983  51.2338648
  16.8368974  55.0425475  52.9859220  17.6561863  55.5369554  53.0094057
  17.1105782  54.1257443  52.9576788  26.5935570  47.4336228  42.3487176
  25.7061425  47.7185878  42.1307370  27.0089559  47.2729991  41.5014452
  29.9450106  47.4582749  46.0641515  30.7210496  47.9479201  46.3366132
  29.2198241  47.8840803  46.5213384  32.3822665  48.1710368  47.1215455
  32.9767156  47.9306104  46.4108764  32.4549249  47.4517498  47.7488992
  14.6019821  62.0143979  47.4358620  14.4674289  61.2544380  46.8696618
  14.1851883  62.7384879  46.9687409  25.7378784  57.1980902  36.4435196
  26.4414634  57.4030905  37.0592851  25.0141432  57.7657664  36.7084279
  26.5676594  52.9490763  42.5637466  26.5111795  53.4059315  41.7245098
  27.1204936  52.1881448  42.3860308  30.3781400  48.7380495  43.3887585
  30.1218334  48.3377131  44.2195793  29.7534268  49.4524289  43.2637724
  17.7588947  62.9113296  47.6477063  17.6421331  63.8558728  47.5455753
  16.9381393  62.6086857  48.0362862  27.6465481  57.6363431  38.4933656
  28.4811085  57.2044630  38.3111130  27.4849824  57.4645445  39.4210550
  27.3011373  54.1395545  39.8589995  27.2460177  53.9739816  38.9178439
  26.6757429  54.8471578  40.0152185  12.0903888  49.3763609  53.6851417
  12.7362752  48.8662563  54.1738642  11.8821039  50.1132291  54.2594842
  24.6157280  56.4444457  59.1843558  25.4848440  56.6185109  58.8230193
  24.1364032  57.2638873  59.0619287  20.6107499  43.6403654  39.4375313
  20.5986169  44.5845494  39.5943584  21.5030921  43.4573799  39.1434775
  18.7843461  63.5641558  50.8632991  19.6870707  63.5965168  51.1799486
  18.5580831  62.6342009  50.8779327  20.5397063  62.3172544  47.5243070
  19.5892694  62.3174406  47.4107442  20.8429549  61.5705279  47.0079105
  24.4259618  40.2346430  43.6921250  23.6592014  39.6804917  43.8377932
  24.8370323  40.3068299  44.5535402  16.4301379  46.5231226  57.7826431
  17.2932841  46.1668031  57.9929756  15.8566790  46.1845121  58.4701836
  36.2749756  68.1533083  48.5888832  36.9128166  68.0339830  47.8852172
  36.1570599  69.1013926  48.6476785  33.0839462  68.1060511  48.5250357
  32.7457974  67.9901575  47.6370892  33.9529231  67.7051676  48.5051363
  28.9426278  69.9595987  44.5147248  28.3791143  69.8685924  43.7463536
  28.8278673  69.1395892  44.9949741  26.4890710  71.4547179  47.3531468
  27.2812002  71.1138003  46.9377768  26.7287360  71.5642154  48.2733622
  34.5225837  73.6266955  39.8261713  33.8713817  74.2121035  39.4395727
  35.3170200  74.1573150  39.8856750  28.4481464  70.7156092  40.2248847
  29.2212340  70.1685079  40.0861723  28.8006863  71.5800341  40.4363309
  30.2866507  72.0432474  53.4315747  29.9956373  72.9478105  53.3162413
  30.9223491  72.0849002  54.1459816  31.2122713  69.4209323  50.0217106
  31.8086286  69.1965345  49.3074069  31.2697685  68.6794068  50.6242554
  30.7847742  66.8748758  37.8567297  31.0373263  66.3530279  37.0950760
  29.8472301  66.7114903  37.9593981  35.8291025  65.8784536  45.6642040
  36.6154114  65.4603960  45.3132457  36.0929729  66.7830629  45.8323689
  36.0001102  71.3157387  40.3630697  35.3646935  71.3892013  41.0751602
  35.6698508  71.9050986  39.6849776  30.5044031  68.7776864  40.0591672
  30.3880289  68.1021767  40.7272756  30.6146291  68.2909238  39.2423825
  32.8475572  68.2387011  43.7638361  32.4833779  67.7117632  44.4751283
  33.7042687  67.8485480  43.5904847  32.4881059  63.2676911  38.7599710
  32.6555461  64.1357147  39.1270181  32.2978228  63.4304192  37.8360999
  35.2456392  71.7293890  50.4265540  34.9457115  72.6318928  50.3181347
  34.9007451  71.4626073  51.2786693  28.6968873  68.1807687  46.4602245
  27.7719370  68.0483901  46.6679936  28.9453286  68.9601906  46.9572187
  38.6453536  64.2476430  48.1062978  37.7370413  64.1791838  47.8121739
  38.5941131  64.7248375  48.9344803  32.4670279  65.7234568  39.7446377
  32.3469905  66.1691619  40.5831857  31.7722868  66.0719886  39.1859915
  26.0577684  67.8240960  47.2946034  26.1870065  68.0775439  48.2085445
  25.3775136  68.4168668  46.9750689  30.2277172  78.4938210  43.3936508
  30.1501201  79.4446035  43.4724989  29.6238815  78.1484083  44.0511434
  32.7194401  65.6666075  56.0497875  31.9427735  66.2259996  56.0400739
  33.3584964  66.1522858  56.5712745  40.5115182  62.4492868  49.8840851
  39.8689562  62.7425401  49.2380646  40.0070110  62.3345789  50.6894048
  38.1655346  66.1956041  40.5726711  39.0773202  66.4283428  40.3974408
  37.6564993  66.7793086  40.0101789  30.9740774  68.4751529  55.6115842
  31.7155458  69.0136573  55.3350665  30.2677759  69.1017818  55.7687394
  32.8027183  65.5553276  51.5821560  33.6488378  65.9792690  51.7256209
  32.7425821  64.8986900  52.2760123  36.7724928  71.1781860  47.9640292
  36.1433790  71.3427574  47.2616360  36.3850590  71.5923469  48.7351256
  40.6514160  72.1136298  45.3184656  39.9665198  72.4935199  44.7681689
  40.7358009  72.7231624  46.0516604  37.9065091  69.7596257  51.9179999
  38.1181987  70.4028017  51.2414381  37.8594840  68.9258573  51.4501930
  35.5091320  62.3714077  48.8216572  34.6475799  62.6695331  49.1133309
  35.5353755  62.5884476  47.8897604  32.3252890  70.9156268  45.2290377
  32.7891235  71.1943971  44.4395000  32.0609688  70.0139713  45.0463468
  29.2176971  70.4627750  48.1670141  29.7878328  70.8915018  47.5287625
  29.8085083  70.1810334  48.8654326  31.2621776  67.0379420  42.0379942
  31.9645819  67.4900464  42.5053869  30.9302404  66.3963239  42.6659836
  29.7102137  65.6291177  56.4131152  29.0800798  66.3107458  56.6466549
  29.6038225  65.5174259  55.4684290  25.0047110  65.2962973  47.3397076
  24.2146164  65.5520502  46.8637187  25.4958357  66.1111311  47.4449117
  39.0210919  72.6368212  50.0902357  39.8428363  72.2348399  49.8085038
  39.0173322  72.5336446  51.0418473  26.9561855  65.6607552  44.2980553
  26.1593018  65.7726247  44.8164048  26.7287447  65.9994204  43.4321443
  32.7867523  72.1852255  52.2463067  32.8511955  72.6472663  53.0821239
  32.0778447  71.5549620  52.3745377  23.2884813  65.5493463  49.7712067
  23.5392851  66.4340473  50.0369643  23.8244361  65.3698065  48.9987159
  47.1116912  68.9806961  46.4387328  46.3580621  68.4114359  46.2831333
  47.2464454  68.9469625  47.3857963  32.5015540  73.8520363  42.1142048
  32.3661215  74.6971899  42.5426895  33.0425353  74.0539641  41.3507981
  28.9882880  59.9311943  58.7756403  28.5949826  59.3778141  59.4504047
  29.8049020  60.2422521  59.1662920  25.9544938  71.3695801  42.6869973
  26.4669458  72.1639051  42.8375537  26.6067651  70.6722091  42.6203574
  27.7639823  74.4861557  44.7692726  27.9406451  75.4079522  44.5813710
  28.5596656  74.1719977  45.1987106  31.9050841  61.3469822  56.3676659
  32.6460554  61.9476975  56.2881122  32.1368764  60.6047460  55.8094702
  27.0492179  66.5326189  54.6454889  26.9345694  65.6311446  54.9461988
  26.1936697  66.7789886  54.2939706  34.1284017  74.4743929  56.2442390
  33.6847871  73.6880308  55.9263294  34.7901230  74.6623080  55.5786281
  28.8871138  76.0039731  50.7703068  29.4378563  75.8756794  49.9980062
  28.0482614  76.3034620  50.4197961  36.2265255  74.7546729  54.2723791
  36.2083730  75.5755610  53.7804060  37.1485175  74.6300805  54.4973932
  32.6838309  72.2690859  55.1147299  33.2166646  71.5079147  54.8846607
  32.1552390  71.9764511  55.8571454  23.9193855  69.6984455  43.4629543
  24.7569077  70.1081464  43.2463251  24.0972122  68.7583897  43.4329737
  35.8158287  67.3659536  39.1513376  35.3004910  68.1364141  39.3901764
  35.5435595  66.6924672  39.7746438  33.4005398  62.2109237  44.2098615
  32.5446994  61.8216087  44.0304253  33.8132350  62.2901198  43.3498400
  34.9304544  59.7455580  48.6090174  34.4269340  59.7085715  47.7957980
  35.2235151  60.6548323  48.6686831  31.1747430  59.8294310  47.6156356
  32.0400427  59.6337118  47.2562246  31.2424939  59.6004662  48.5425713
  40.7892561  70.1191891  41.0866550  40.0122004  69.7803050  40.6421712
  41.4684042  70.1244514  40.4121515  35.6044590  65.2386628  40.9773157
  35.2994725  65.5532777  41.8283301  36.5575032  65.3168048  41.0200490
  34.0491022  71.3976851  42.6266111  33.5212383  70.6629611  42.3139349
  33.5478524  72.1751528  42.3806080  39.0283868  69.5925872  47.7433158
  38.3707542  70.2825133  47.8313286  39.8324267  69.9822304  48.0867144
  28.7809749  62.0596518  44.9872723  29.3553501  61.8371699  44.2545916
  29.3680732  62.1285212  45.7401324  37.8389327  67.9470245  45.7937099
  38.3521208  68.5800236  46.2958809  38.4890550  67.3471440  45.4280459
  29.1079336  64.0900979  39.0068608  28.2716649  64.4275665  39.3277883
  28.9684106  63.9549958  38.0695745  31.0832417  58.9337767  43.7147792
  30.4296829  58.6186784  43.0904407  31.0412891  58.3113507  44.4407615
  32.1943622  69.2157062  35.6301084  31.2870684  68.9846315  35.8292233
  32.6914654  68.4194681  35.8175066  35.1011701  77.9254569  38.5497771
  34.4273400  78.2286266  39.1582728  35.4877523  78.7283649  38.2003228
  34.3170157  65.4219700  48.0395440  33.3992719  65.6434647  47.8817128
  34.7330301  65.4966011  47.1807147  35.1005205  66.8211116  43.1698120
  35.8477024  67.3332513  42.8605242  35.3696795  66.4995169  44.0302514
  33.3731855  69.3169657  40.1525075  32.4643075  69.0328689  40.2497544
  33.4026939  69.7368735  39.2928381  38.6051123  72.9276246  43.9216242
  38.1513450  72.0867156  43.9781433  37.9745089  73.5637644  44.2591022
  37.5484042  63.8568232  45.1516910  36.8106799  63.3445618  45.4827152
  37.8010816  63.4168614  44.3400186  37.0484062  74.7652743  44.8566060
  37.3407036  75.3257800  44.1378426  37.5582683  75.0581304  45.6119219
  23.9420026  67.0375171  44.1340277  23.7444426  66.4444531  43.4091343
  23.3866690  66.7327381  44.8516216  31.9216749  66.9298277  46.2534870
  31.9765359  65.9772114  46.1777346  31.1107951  67.0857716  46.7376168
  33.0707943  70.8578400  37.4913153  32.6327373  70.1414259  37.0318790
  33.8118384  71.0854515  36.9298244  29.8609109  65.5475337  44.0125249
  29.0476975  65.8469507  44.4190441  30.3568103  65.1531026  44.7299731
  32.0117687  75.5433094  45.9459513  31.9693866  75.7693940  45.0168045
  32.9280386  75.3096468  46.0945315  35.4583321  66.0117161  52.8440143
  35.8132709  66.2388634  53.7034608  36.1055452  66.3435538  52.2217398
  41.1881058  69.1335597  43.5489472  41.0498957  69.3237193  42.6210661
  40.8317277  69.8954980  44.0057523  29.3523184  63.1193692  49.6286484
  29.9922563  62.9782451  48.9309447  28.5200715  62.8328206  49.2525086
  41.2150438  71.2012124  48.5600743  41.6486944  71.1087413  49.4083797
  41.9282018  71.1769625  47.9220759  30.1283488  72.4196123  45.7421476
  30.9224086  71.9246443  45.5404051  29.4175180  71.8913986  45.3789182
  34.9478332  74.8014218  50.0933844  35.0015355  75.3705155  50.8611560
  34.0793114  74.9716103  49.7287881  26.4366251  66.5639205  41.8181229
  25.5063840  66.5023660  42.0351191  26.5323723  66.0415157  41.0217870
  26.3551800  63.0894017  44.4059471  26.6158618  64.0039351  44.2968631
  27.1768973  62.6218460  44.5556083  27.8276726  64.5031775  51.5758295
  28.4999779  64.2949137  50.9270944  27.0006512  64.3053861  51.1363527
  42.0765987  71.2435825  51.0933629  42.2701877  72.1481635  51.3392904
  41.9766605  70.7843244  51.9272214  33.7302298  61.1293715  53.5923956
  33.0830213  61.8283665  53.4988432  34.5003313  61.5629859  53.9600204
  33.9066432  68.9674480  51.6520776  34.8358492  69.1185640  51.4789743
  33.4857462  69.0558501  50.7969422  32.7054764  72.9925145  49.4219313
  32.5665850  72.6243929  50.2945251  31.9169360  73.5072784  49.2503271
  33.3002916  78.0934241  40.7644850  33.4754672  77.6222284  41.5790472
  32.6135704  78.7200007  40.9926111  34.2559979  72.3706747  46.8108151
  33.9209812  72.3307517  47.7065801  33.7563925  71.7051463  46.3378561
  28.2304223  67.7774378  52.3360732  28.0924021  67.0454616  52.9372271
  29.1409147  67.6883278  52.0544920  37.1919171  69.7162782  37.0845211
  36.5748341  68.9909610  36.9878263  36.7235659  70.4772142  36.7412285
  30.8586524  67.4894337  51.8244412  31.5686142  66.8487529  51.7831030
  30.8155832  67.7407232  52.7470593  38.8473302  74.4261690  54.7450991
  38.7885849  73.7420910  54.0781574  39.2492821  75.1680680  54.2931617
  29.5715458  64.4759555  53.6440051  29.0352815  64.0250293  54.2961648
  28.9832166  64.6105464  52.9010516  27.8664001  81.2423604  47.5384710
  28.1060599  81.8742128  48.2163729  27.0233198  80.8911644  47.8250069
  28.9817717  63.9348206  36.2066515  28.1047183  63.8137007  35.8428762
  29.4575470  63.1434284  35.9545404  38.8490710  72.3901274  52.9764971
  37.9617488  72.0527196  53.0991370  39.4189261  71.6584305  53.2133736
  20.5019857  68.7225366  46.3008022  21.1890897  68.4087096  45.7129037
  20.3467985  69.6266731  46.0275274  25.3054579  63.6115562  50.7293046
  25.2212768  63.0041232  49.9943456  24.4837285  64.1024581  50.7302542
  32.3791863  77.0502726  49.9426214  32.3062035  77.8557698  50.4545518
  31.9369256  77.2494692  49.1174235  32.1681643  76.2874496  43.4529035
  31.3849165  76.8296177  43.5467260  32.8674388  76.8048476  43.8523277
  35.4778293  62.0969126  46.0963241  35.9746992  61.3439088  45.7764311
  34.7065274  62.1333443  45.5306450  43.3308050  67.8009491  47.7381532
  43.3197926  68.6834207  47.3675465  42.4625430  67.4481042  47.5436069
  34.8390547  76.9489560  52.0984373  35.5518519  77.5837025  52.0260274
  34.3480575  77.0453426  51.2824374  36.5608074  70.8540813  43.6701664
  35.6264352  70.9742276  43.5006369  36.7384742  69.9513280  43.4061674
  32.0613262  64.2386509  45.8234925  31.6911049  63.6857549  46.5115831
  32.5572354  63.6344642  45.2709926  29.8902460  74.6984004  52.9189943
  30.5911920  75.3320487  53.0719338  29.4197575  75.0398736  52.1585583
  38.0156856  73.0401954  41.2037850  38.2916700  72.9258548  42.1131725
  37.1461355  72.6419439  41.1650024  37.6903746  67.2528611  50.7442494
  37.0375196  67.5004519  50.0894947  38.0684126  66.4392750  50.4104971
  34.6510920  77.2888305  44.8470664  34.8333315  76.4709961  45.3098416
  35.4743906  77.5055997  44.4095554  34.9853085  76.2156490  42.1085713
  35.5140852  75.7048944  41.4955875  35.2481305  75.8999020  42.9731246
  25.4870178  74.2320359  49.8521046  26.0723615  73.4864047  49.9848950
  25.2895017  74.5424316  50.7357710  28.3408833  77.2671606  44.8683488
  27.6719209  77.7517734  44.3847529  28.2021703  77.5140827  45.7826867
  20.0787833  66.8025959  48.5725489  20.1171932  66.2689550  49.3662607
  19.5728126  66.2761165  47.9536466  32.4814102  79.3015350  51.4666147
  33.0332410  79.4646971  52.2315232  32.8220295  79.8919788  50.7946172
  27.4578595  61.6490500  52.0688032  27.5219922  62.5105331  51.6565429
  27.3945715  61.0364501  51.3360390  26.9330868  63.7213632  55.7161066
  27.5602907  63.3390710  56.3298590  26.0758787  63.5027834  56.0816758
  37.3324976  74.1276607  57.3214801  37.8764880  74.7406566  56.8269756
  36.7511821  74.6856186  57.8381814  23.7096411  65.5290061  41.6479421
  24.0049852  64.6200740  41.5946474  22.8084446  65.5077801  41.3260423
  35.6182489  77.2497325  48.4529829  35.4933629  76.4487065  47.9440774
  36.2761580  77.7443519  47.9643799  27.2390658  63.6046058  47.6306969
  26.5177243  64.2182026  47.4914443  28.0283913  64.1403823  47.5523615
  37.6817398  75.0506346  50.0809379  36.7347733  74.9311697  50.0087706
  38.0300171  74.1628844  50.1635641  30.0416971  60.9400484  53.9047621
  30.5651373  61.1862781  54.6673930  29.8229304  61.7720519  53.4850758
  25.4384252  63.2104159  41.7718746  25.1096958  62.3301538  41.5893852
  25.7923623  63.1551828  42.6595135  34.6863831  74.8459062  46.2813731
  34.5388793  73.9175769  46.4621301  35.5117324  74.8679152  45.7970807
  28.5526075  63.4977129  42.1394223  28.8922148  64.0263050  41.4172832
  28.9998196  63.8357535  42.9152790  38.2897953  75.6687620  47.3678604
  39.2144500  75.4630482  47.2303055  38.1213256  75.4204022  48.2767946
  31.2469516  61.8814180  51.5897292  30.9066336  61.0821993  51.9917971
  30.5408522  62.1815890  51.0174125  31.8985988  58.9663492  50.0424615
  32.7212057  58.4923970  49.9203505  32.1424051  59.7453976  50.5423301
  30.5394222  61.9951750  40.3387516  31.2602585  62.3733003  39.8351233
  29.9159527  62.7140627  40.4422494  34.6825345  62.6996899  41.2745849
  34.8988960  63.5821537  40.9734677  34.2019412  62.3083113  40.5451491
  29.4224567  65.6582613  47.8516593  29.2769147  65.9722916  48.7440875
  28.9449770  66.2767513  47.2987492  31.2820950  62.6485161  47.8997483
  31.2682518  61.7526254  47.5629781  31.9993378  62.6555824  48.5335769
  33.1347080  63.0822501  49.9450610  32.8764858  64.0039571  49.9434941
  32.6032121  62.6852935  50.6351074  38.0793269  76.1873288  42.7240696
  38.2530147  75.6219710  41.9714548  38.5722160  76.9874183  42.5420185
  23.8970229  68.1987957  50.7904254  23.3523697  68.9747765  50.9224529
  24.7749579  68.5458761  50.6323376  30.6857845  61.5299541  43.1685053
  30.8073757  60.6016187  43.3675940  30.3959888  61.5438227  42.2563368
  33.5549036  59.2154451  46.3051773  33.5770733  59.2793784  45.3503752
  33.9717095  58.3758960  46.4992279  43.9332660  68.9509711  44.3430995
  44.3763806  68.2017036  43.9450119  43.0559170  68.9419847  43.9604727
  39.0668442  75.5040052  39.8237594  39.7619346  76.1246745  40.0424908
  39.4091592  74.6535404  40.0989972  24.6836251  67.3257853  53.6834411
  23.9417987  67.4740489  54.2699042  24.3628995  67.5866119  52.8201161
  40.9659865  72.9539758  41.3524925  41.4911189  73.2927031  40.6274245
  40.8782217  72.0186773  41.1688059  32.6279913  76.8673832  53.4814801
  32.9367040  76.6222978  54.3537501  33.4255395  77.0720470  52.9933671
  32.6500525  79.0211741  45.7120178  32.2105516  78.5288120  46.4053034
  33.4008642  78.4784709  45.4712253  25.1292864  75.2123282  45.7144806
  25.9550884  74.9127054  45.3343449  24.7786916  74.4430904  46.1634594
  30.0974398  74.5649750  47.7842479  29.4754407  73.9020455  47.4844707
  30.7679264  74.5910882  47.1016127  23.3301469  73.1309608  46.6733739
  22.4933378  72.7031783  46.4917741  23.3025115  73.3242052  47.6104531
  30.1698925  63.0431538  57.3774985  30.2187080  63.9193661  56.9952755
  30.7121439  62.5008931  56.8046629  40.6553771  73.5872662  56.6576123
  39.8649314  73.5696800  56.1180622  40.4187125  74.1260955  57.4125159
  40.7751646  70.4365128  53.9708851  40.8249651  70.2715135  54.9124374
  40.6665569  69.5692387  53.5806732  29.6587904  73.1153674  41.2600940
  29.8076025  73.7989138  40.6067613  30.4654348  73.0958764  41.7750396
  32.3998213  63.7962911  54.1321344  31.5301523  64.0896477  53.8603933
  32.6357694  64.3803356  54.8528608  42.2769843  72.8562069  54.2150873
  41.9854651  73.2192050  55.0514334  41.6641974  72.1429078  54.0364205
  43.4765525  70.4214949  46.7353443  44.3112416  70.8604753  46.8991003
  43.6124654  69.9453602  45.9161689  40.5257031  67.9794684  52.6830931
  41.0011152  68.1722330  51.8749782  39.6022596  68.0353870  52.4374314
  27.4140537  69.1418851  42.2662009  27.1686579  68.2381181  42.4642219
  27.5836452  69.1436002  41.3241487  35.1037247  60.0142528  51.6486765
  35.6219191  60.7503555  51.3233253  34.7492380  60.3206521  52.4833524
  26.6836185  64.8747209  39.7648170  25.9905430  64.9491564  39.1088206
  26.4387937  64.1107552  40.2869687  33.1583310  75.6101804  38.7312687
  32.5857277  76.2291991  38.2783159  33.7316104  76.1601166  39.2652609
  37.2473079  61.9416027  51.1018637  36.6523011  62.2221040  50.4065126
  36.9622776  62.4309928  51.8735378  36.3780570  75.8938954  39.8621270
  37.3111243  75.8284516  40.0654145  36.2903783  76.7295221  39.4035802
  39.0068586  75.2104824  36.8225217  38.9282218  74.8764688  37.7160975
  39.8278253  75.7026592  36.8216690  41.7046778  68.0766564  50.0301536
  41.6723098  67.1382565  50.2161220  42.3147401  68.1550601  49.2967361
  33.5430108  66.9462617  36.0728740  34.4889213  66.8168825  36.1417158
  33.1644353  66.2077279  36.5498168  47.5223327  69.1382571  49.1707573
  48.2526716  68.8767859  49.7315276  46.9130273  68.4011293  49.2109641
  31.7273026  64.8712593  36.0083625  30.8204481  64.5745706  36.0846339
  32.0049007  64.5742411  35.1417911  22.6450966  66.1918957  46.4582672
  22.3253750  65.3384265  46.1657046  22.0984394  66.4067535  47.2140639
  26.4230874  68.9081398  50.1752178  26.6416883  69.8398505  50.1940212
  26.8356647  68.5489372  50.9606982  33.3435091  59.4149483  42.1627866
  32.5335820  59.0696568  42.5383112  34.0319508  59.1057027  42.7515478
  31.2958739  64.4814603  59.5654927  31.1955466  65.4308960  59.4967018
  31.0780281  64.1532842  58.6930997  30.4971810  61.7299528  36.1495604
  31.3590974  62.0554427  36.4091422  30.6822154  60.9431024  35.6368670
  22.5139226  69.8121868  48.4275793  21.8202697  69.3975821  47.9145748
  23.2612217  69.8542405  47.8309212  31.1590009  67.9111742  58.3819989
  30.6757091  68.7112102  58.5883878  31.2450948  67.9219687  57.4287433
  24.4275969  69.7440122  46.3041808  24.4046657  69.8427809  45.3523691
  24.7376605  70.5905273  46.6258974  27.0863346  71.8016277  50.4188422
  28.0406600  71.7700219  50.3518354  26.8875870  71.3406901  51.2338648
  27.6762729  70.3717393  52.9859220  28.4955618  70.8661472  53.0094057
  27.9499536  69.4549361  52.9576788  37.4329325  62.7628145  42.3487176
  36.5455180  63.0477796  42.1307370  37.8483314  62.6021909  41.5014452
  25.4413575  77.3435896  47.4358620  25.3068043  76.5836297  46.8696618
  25.0245637  78.0676796  46.9687409  36.5772538  72.5272820  36.4435196
  37.2808388  72.7322822  37.0592851  35.8535187  73.0949582  36.7084279
  37.4070348  68.2782681  42.5637466  37.3505550  68.7351233  41.7245098
  37.9598691  67.5173366  42.3860308  28.5982701  78.2405213  47.6477063
  28.4815085  79.1850646  47.5455753  27.7775147  77.9378775  48.0362862
  38.4859236  72.9655349  38.4933656  39.3204840  72.5336548  38.3111130
  38.3243579  72.7937363  39.4210550  38.1405128  69.4687462  39.8589995
  38.0853932  69.3031734  38.9178439  37.5151183  70.1763495  40.0152185
  22.9297643  64.7055527  53.6851417  23.5756506  64.1954481  54.1738642
  22.7214794  65.4424208  54.2594842  31.4501253  58.9695571  39.4375313
  31.4379923  59.9137411  39.5943584  32.3424675  58.7865717  39.1434775
  29.6237215  78.8933475  50.8632991  30.5264462  78.9257086  51.1799486
  29.3974585  77.9633926  50.8779327  31.3790817  77.6464462  47.5243070
  30.4286448  77.6466323  47.4107442  31.6823303  76.8997196  47.0079105
  27.2695134  61.8523144  57.7826431  28.1326595  61.4959949  57.9929756
  26.6960544  61.5137039  58.4701836  47.1143511  83.4825000  48.5888832
  47.7521921  83.3631748  47.8852172  46.9964354  84.4305844  48.6476785
  43.9233217  83.4352428  48.5250357  43.5851729  83.3193493  47.6370892
  44.7922985  83.0343593  48.5051363  39.7820033  85.2887905  44.5147248
  39.2184898  85.1977842  43.7463536  39.6672428  84.4687809  44.9949741
  44.4053000  84.5887280  54.4836563  44.3941641  84.1940078  53.6117066
  44.5673639  83.8553353  55.0770334  37.3284465  86.7839096  47.3531468
  38.1205757  86.4429921  46.9377768  37.5681115  86.8934071  48.2733622
  45.3619591  88.9558872  39.8261713  44.7107571  89.5412953  39.4395727
  46.1563954  89.4865067  39.8856750  39.2875219  86.0448010  40.2248847
  40.0606095  85.4976997  40.0861723  39.6400617  86.9092259  40.4363309
  41.1260261  87.3724392  53.4315747  40.8350127  88.2770023  53.3162413
  41.7617245  87.4140919  54.1459816  42.0516468  84.7501240  50.0217106
  42.6480040  84.5257263  49.3074069  42.1091439  84.0085986  50.6242554
  41.6241496  82.2040676  37.8567297  41.8767017  81.6822197  37.0950760
  40.6866055  82.0406821  37.9593981  46.6684779  81.2076454  45.6642040
  47.4547868  80.7895877  45.3132457  46.9323484  82.1122546  45.8323689
  46.8394857  86.6449304  40.3630697  46.2040690  86.7183931  41.0751602
  46.5092263  87.2342903  39.6849776  52.0693206  81.1451687  46.5675019
  52.8018378  80.5750904  46.8012848  51.3132562  80.7573288  47.0081524
  41.3437785  84.1068782  40.0591672  41.2274043  83.4313685  40.7272756
  41.4540045  83.6201156  39.2423825  43.6869326  83.5678929  43.7638361
  43.3227533  83.0409550  44.4751283  44.5436442  83.1777398  43.5904847
  49.5918627  74.8573261  51.0269628  49.2601951  75.7268672  50.8030842
  48.9964240  74.5409545  51.7063658  43.3274813  78.5968828  38.7599710
  43.4949215  79.4649065  39.1270181  43.1371982  78.7596110  37.8360999
  46.0850146  87.0585807  50.4265540  45.7850869  87.9610846  50.3181347
  45.7401206  86.7917991  51.2786693  39.5362628  83.5099604  46.4602245
  38.6113124  83.3775818  46.6679936  39.7847041  84.2893823  46.9572187
  49.4847290  79.5768348  48.1062978  48.5764167  79.5083756  47.8121739
  49.4334886  80.0540292  48.9344803  43.3064034  81.0526486  39.7446377
  43.1863659  81.4983537  40.5831857  42.6116622  81.4011804  39.1859915
  36.8971439  83.1532878  47.2946034  37.0263820  83.4067357  48.2085445
  36.2168890  83.7460586  46.9750689  41.0670926  93.8230128  43.3936508
  40.9894956  94.7737953  43.4724989  40.4632570  93.4776000  44.0511434
  43.5588156  80.9957993  56.0497875  42.7821490  81.5551913  56.0400739
  44.1978719  81.4814776  56.5712745  51.3508936  77.7784786  49.8840851
  50.7083317  78.0717319  49.2380646  50.8463865  77.6637706  50.6894048
  49.0049100  81.5247959  40.5726711  49.9166956  81.7575346  40.3974408
  48.4958747  82.1085003  40.0101789  41.8134528  83.8043446  55.6115842
  42.5549212  84.3428490  55.3350665  41.1071514  84.4309735  55.7687394
  47.2889868  85.9472587  54.2088003  47.6973224  85.5054997  53.4642636
  46.5667129  85.3725214  54.4622196  43.6420938  80.8845194  51.5821560
  44.4882133  81.3084607  51.7256209  43.5819575  80.2278818  52.2760123
  47.6118682  86.5073778  47.9640292  46.9827545  86.6719492  47.2616360
  47.2244344  86.9215387  48.7351256  51.4907914  87.4428215  45.3184656
  50.8058952  87.8227117  44.7681689  51.5751764  88.0523542  46.0516604
  46.7920383  78.5449562  53.2402734  46.5481315  79.2991623  52.7037010
  47.0680314  78.9234910  54.0749981  48.7458846  85.0888174  51.9179999
  48.9575741  85.7319934  51.2414381  48.6988594  84.2550491  51.4501930
  46.3485075  77.7005995  48.8216572  45.4869554  77.9987249  49.1133309
  46.3747509  77.9176394  47.8897604  43.1646644  86.2448186  45.2290377
  43.6284990  86.5235889  44.4395000  42.9003442  85.3431630  45.0463468
  40.0570725  85.7919667  48.1670141  40.6272082  86.2206936  47.5287625
  40.6478837  85.5102252  48.8654326  42.1015530  82.3671338  42.0379942
  42.8039574  82.8192382  42.5053869  41.7696159  81.7255157  42.6659836
  40.5495892  80.9583095  56.4131152  39.9194552  81.6399376  56.6466549
  40.4431980  80.8466176  55.4684290  35.8440864  80.6254891  47.3397076
  35.0539918  80.8812419  46.8637187  36.3352112  81.4403229  47.4449117
  49.8604674  87.9660130  50.0902357  50.6822118  87.5640317  49.8085038
  49.8567077  87.8628364  51.0418473  37.7955610  80.9899470  44.2980553
  36.9986773  81.1018164  44.8164048  37.5681202  81.3286122  43.4321443
  43.6261277  87.5144173  52.2463067  43.6905710  87.9764580  53.0821239
  42.9172201  86.8841538  52.3745377  34.1278567  80.8785381  49.7712067
  34.3786606  81.7632391  50.0369643  34.6638116  80.6989983  48.9987159
  57.9510667  84.3098878  46.4387328  57.1974375  83.7406276  46.2831333
  58.0858208  84.2761543  47.3857963  43.3409295  89.1812281  42.1142048
  43.2054970  90.0263816  42.5426895  43.8819107  89.3831558  41.3507981
  39.8276635  75.2603861  58.7756403  39.4343580  74.7070059  59.4504047
  40.6442775  75.5714439  59.1662920  36.7938692  86.6987719  42.6869973
  37.3063213  87.4930969  42.8375537  37.4461405  86.0014009  42.6203574
  38.6033577  89.8153475  44.7692726  38.7800205  90.7371440  44.5813710
  39.3990411  89.5011894  45.1987106  42.7444596  76.6761740  56.3676659
  43.4854309  77.2768893  56.2881122  42.9762518  75.9339377  55.8094702
  37.8885934  81.8618107  54.6454889  37.7739449  80.9603364  54.9461988
  37.0330451  82.1081804  54.2939706  44.9677771  89.8035847  56.2442390
  44.5241625  89.0172226  55.9263294  45.6294985  89.9914998  55.5786281
  39.7264892  91.3331649  50.7703068  40.2772318  91.2048712  49.9980062
  38.8876368  91.6326538  50.4197961  47.0659009  90.0838647  54.2723791
  47.0477485  90.9047528  53.7804060  47.9878929  89.9592722  54.4973932
  43.5232064  87.5982777  55.1147299  44.0560400  86.8371065  54.8846607
  42.9946145  87.3056428  55.8571454  46.6901758  72.7042843  50.6440941
  46.3466028  73.5944484  50.5680052  47.0580721  72.5144500  49.7810526
  34.7587609  85.0276373  43.4629543  35.5962831  85.4373381  43.2463251
  34.9365877  84.0875815  43.4329737  46.6552041  82.6951454  39.1513376
  46.1398665  83.4656058  39.3901764  46.3829350  82.0216590  39.7746438
  44.2399152  77.5401154  44.2098615  43.3840749  77.1508005  44.0304253
  44.6526104  77.6193115  43.3498400  45.7698299  75.0747498  48.6090174
  45.2663094  75.0377633  47.7957980  46.0628906  75.9840240  48.6686831
  42.0141185  75.1586227  47.6156356  42.8794182  74.9629036  47.2562246
  42.0818694  74.9296579  48.5425713  51.6286315  85.4483808  41.0866550
  50.8515758  85.1094968  40.6421712  52.3077796  85.4536431  40.4121515
  46.4438344  80.5678546  40.9773157  46.1388480  80.8824695  41.8283301
  47.3968786  80.6459966  41.0200490  44.8884776  86.7268769  42.6266111
  44.3606138  85.9921529  42.3139349  44.3872279  87.5043445  42.3806080
  49.8677622  84.9217790  47.7433158  49.2101297  85.6117051  47.8313286
  50.6718021  85.3114221  48.0867144  39.6203504  77.3888435  44.9872723
  40.1947256  77.1663617  44.2545916  40.2074486  77.4577130  45.7401324
  48.6783081  83.2762162  45.7937099  49.1914963  83.9092154  46.2958809
  49.3284305  82.6763358  45.4280459  39.9473091  79.4192896  39.0068608
  39.1110403  79.7567583  39.3277883  39.8077861  79.2841876  38.0695745
  41.9226172  74.2629684  43.7147792  41.2690584  73.9478701  43.0904407
  41.8806646  73.6405425  44.4407615  43.0337376  84.5448979  35.6301084
  42.1264438  84.3138233  35.8292233  43.5308408  83.7486599  35.8175066
  45.9405455  93.2546487  38.5497771  45.2667154  93.5578183  39.1582728
  46.3271277  94.0575567  38.2003228  45.1563912  80.7511618  48.0395440
  44.2386473  80.9726565  47.8817128  45.5724056  80.8257928  47.1807147
  45.9398960  82.1503033  43.1698120  46.6870779  82.6624431  42.8605242
  46.2090549  81.8287086  44.0302514  44.2125610  84.6461574  40.1525075
  43.3036829  84.3620607  40.2497544  44.2420694  85.0660653  39.2928381
  49.4444877  88.2568164  43.9216242  48.9907204  87.4159074  43.9781433
  48.8138844  88.8929562  44.2591022  48.3877797  79.1860150  45.1516910
  47.6500554  78.6737536  45.4827152  48.6404570  78.7460531  44.3400186
  47.8877816  90.0944660  44.8566060  48.1800791  90.6549717  44.1378426
  48.3976437  90.3873221  45.6119219  48.4889424  71.9636402  45.7458679
  48.7948301  71.1033765  45.4584594  49.2142029  72.5554022  45.5457673
  34.7813780  82.3667088  44.1340277  34.5838180  81.7736449  43.4091343
  34.2260444  82.0619299  44.8516216  42.7610504  82.2590195  46.2534870
  42.8159114  81.3064031  46.1777346  41.9501706  82.4149634  46.7376168
  43.9101698  86.1870318  37.4913153  43.4721128  85.4706177  37.0318790
  44.6512139  86.4146433  36.9298244  40.7002864  80.8767255  44.0125249
  39.8870729  81.1761425  44.4190441  41.1961858  80.4822943  44.7299731
  42.8511442  90.8725011  45.9459513  42.8087620  91.0985858  45.0168045
  43.7674141  90.6388386  46.0945315  46.2977075  81.3409079  52.8440143
  46.6526463  81.5680552  53.7034608  46.9449207  81.6727456  52.2217398
  52.0274812  84.4627515  43.5489472  51.8892711  84.6529111  42.6210661
  51.6711031  85.2246898  44.0057523  40.1916939  78.4485610  49.6286484
  40.8316318  78.3074369  48.9309447  39.3594469  78.1620123  49.2525086
  52.0544192  86.5304042  48.5600743  52.4880699  86.4379331  49.4083797
  52.7675773  86.5061542  47.9220759  40.9677242  87.7488040  45.7421476
  41.7617841  87.2538361  45.5404051  40.2568935  87.2205904  45.3789182
  45.7872087  90.1306136  50.0933844  45.8409109  90.6997072  50.8611560
  44.9186868  90.3008021  49.7287881  37.2760006  81.8931122  41.8181229
  36.3457594  81.8315578  42.0351191  37.3717478  81.3707075  41.0217870
  37.1945555  78.4185935  44.4059471  37.4552372  79.3331268  44.2968631
  38.0162727  77.9510378  44.5556083  38.6670480  79.8323692  51.5758295
  39.3393534  79.6241054  50.9270944  37.8400267  79.6345778  51.1363527
  52.9159742  86.5727743  51.0933629  53.1095632  87.4773553  51.3392904
  52.8160360  86.1135162  51.9272214  44.5696052  76.4585633  53.5923956
  43.9223967  77.1575583  53.4988432  45.3397068  76.8921777  53.9600204
  47.9774850  86.7234485  56.6674509  47.8260357  86.4945037  55.7504593
  47.9679530  87.6805087  56.6805854  44.7460187  84.2966398  51.6520776
  45.6752247  84.4477558  51.4789743  44.3251217  84.3850419  50.7969422
  43.5448518  88.3217062  49.4219313  43.4059604  87.9535847  50.2945251
  42.7563115  88.8364702  49.2503271  44.1396670  93.4226159  40.7644850
  44.3148426  92.9514202  41.5790472  43.4529458  94.0491925  40.9926111
  45.0953734  87.6998665  46.8108151  44.7603566  87.6599435  47.7065801
  44.5957679  87.0343381  46.3378561  39.0697978  83.1066295  52.3360732
  38.9317776  82.3746534  52.9372271  39.9802901  83.0175195  52.0544920
  48.0312925  85.0454700  37.0845211  47.4142096  84.3201528  36.9878263
  47.5629414  85.8064060  36.7412285  41.6980278  82.8186255  51.8244412
  42.4079897  82.1779447  51.7831030  41.6549586  83.0699149  52.7470593
  49.6867057  89.7553608  54.7450991  49.6279603  89.0712828  54.0781574
  50.0886575  90.4972598  54.2931617  40.4109212  79.8051472  53.6440051
  39.8746569  79.3542211  54.2961648  39.8225921  79.9397381  52.9010516
  38.7057756  96.5715522  47.5384710  38.9454354  97.2034046  48.2163729
  37.8626952  96.2203562  47.8250069  39.8211471  79.2640124  36.2066515
  38.9440937  79.1428925  35.8428762  40.2969224  78.4726202  35.9545404
  49.6884464  87.7193192  52.9764971  48.8011243  87.3819114  53.0991370
  50.2583015  86.9876223  53.2133736  31.3413611  84.0517284  46.3008022
  32.0284651  83.7379014  45.7129037  31.1861740  84.9558648  46.0275274
  36.1448333  78.9407480  50.7293046  36.0606522  78.3333150  49.9943456
  35.3231040  79.4316498  50.7302542  43.2185618  92.3794644  49.9426214
  43.1455789  93.1849616  50.4545518  42.7763011  92.5786610  49.1174235
  43.0075397  91.6166414  43.4529035  42.2242919  92.1588094  43.5467260
  43.7068142  92.1340394  43.8523277  46.3172047  77.4261044  46.0963241
  46.8140747  76.6731006  45.7764311  45.5459029  77.4625360  45.5306450
  54.1701805  83.1301409  47.7381532  54.1591681  84.0126125  47.3675465
  53.3019184  82.7772960  47.5436069  45.6784301  92.2781478  52.0984373
  46.3912273  92.9128943  52.0260274  45.1874330  92.3745344  51.2824374
  47.4001828  86.1832731  43.6701664  46.4658107  86.3034193  43.5006369
  47.5778496  85.2805198  43.4061674  42.9007016  79.5678427  45.8234925
  42.5304804  79.0149467  46.5115831  43.3966109  78.9636560  45.2709926
  50.7874379  82.0250050  44.2051698  51.2534832  82.8578042  44.1312001
  51.2381880  81.5595032  44.9096957  40.7296215  90.0275922  52.9189943
  41.4305674  90.6612405  53.0719338  40.2591330  90.3690653  52.1585583
  48.8550610  88.3693871  41.2037850  49.1310454  88.2550466  42.1131725
  47.9855109  87.9711356  41.1650024  48.7591042  74.3930637  48.2442600
  47.8454122  74.6234864  48.4124807  49.1884144  74.4769081  49.0956632
  48.5297501  82.5820529  50.7442494  47.8768951  82.8296437  50.0894947
  48.9077880  81.7684667  50.4104971  45.4904674  92.6180222  44.8470664
  45.6727069  91.8001878  45.3098416  46.3137660  92.8347915  44.4095554
  45.8246840  91.5448407  42.1085713  46.3534606  91.0340862  41.4955875
  46.0875060  91.2290938  42.9731246  44.5785074  83.3240340  57.2308531
  43.9025711  83.2234469  57.9010906  45.4012708  83.1679554  57.6944528
  36.3263933  89.5612277  49.8521046  36.9117370  88.8155965  49.9848950
  36.1288771  89.8716233  50.7357710  39.1802588  92.5963524  44.8683488
  38.5112963  93.0809652  44.3847529  39.0415458  92.8432745  45.7826867
  30.9181587  82.1317877  48.5725489  30.9565687  81.5981468  49.3662607
  30.4121880  81.6053082  47.9536466  43.3207857  94.6307268  51.4666147
  43.8726165  94.7938889  52.2315232  43.6614050  95.2211705  50.7946172
  38.2972350  76.9782417  52.0688032  38.3613676  77.8397248  51.6565429
  38.2339470  76.3656419  51.3360390  37.7724622  79.0505550  55.7161066
  38.3996661  78.6682627  56.3298590  36.9152541  78.8319752  56.0816758
  48.1718731  89.4568525  57.3214801  48.7158635  90.0698483  56.8269756
  47.5905576  90.0148104  57.8381814  34.5490165  80.8581979  41.6479421
  34.8443606  79.9492657  41.5946474  33.6478201  80.8369718  41.3260423
  46.4576244  92.5789243  48.4529829  46.3327383  91.7778983  47.9440774
  47.1155335  93.0735436  47.9643799  38.0784412  78.9337976  47.6306969
  37.3570998  79.5473943  47.4914443  38.8677668  79.4695740  47.5523615
  48.5211152  90.3798263  50.0809379  47.5741488  90.2603614  50.0087706
  48.8693925  89.4920761  50.1635641  40.8810726  76.2692402  53.9047621
  41.4045127  76.5154699  54.6673930  40.6623059  77.1012437  53.4850758
  36.2778007  78.5396077  41.7718746  35.9490713  77.6593456  41.5893852
  36.6317377  78.4843745  42.6595135  45.5257585  90.1750979  46.2813731
  45.3782548  89.2467687  46.4621301  46.3511079  90.1971070  45.7970807
  39.3919830  78.8269047  42.1394223  39.7315902  79.3554968  41.4172832
  39.8391950  79.1649453  42.9152790  49.1291707  90.9979538  47.3678604
  50.0538255  90.7922399  47.2303055  48.9607011  90.7495939  48.2767946
  42.0863271  77.2106097  51.5897292  41.7460091  76.4113910  51.9917971
  41.3802277  77.5107808  51.0174125  42.7379742  74.2955410  50.0424615
  43.5605812  73.8215888  49.9203505  42.9817806  75.0745893  50.5423301
  41.3787977  77.3243668  40.3387516  42.0996339  77.7024921  39.8351233
  40.7553281  78.0432545  40.4422494  45.5219100  78.0288817  41.2745849
  45.7382714  78.9113455  40.9734677  45.0413167  77.6375030  40.5451491
  40.2618321  80.9874530  47.8516593  40.1162902  81.3014833  48.7440875
  39.7843525  81.6059431  47.2987492  42.1214704  77.9777078  47.8997483
  42.1076273  77.0818172  47.5629781  42.8387132  77.9847742  48.5335769
  43.9740835  78.4114418  49.9450610  43.7158613  79.3331489  49.9434941
  43.4425875  78.0144853  50.6351074  48.9187024  91.5165206  42.7240696
  49.0923901  90.9511628  41.9714548  49.4115915  92.3166100  42.5420185
  34.7363983  83.5279875  50.7904254  34.1917451  84.3039683  50.9224529
  35.6143333  83.8750679  50.6323376  41.5251600  76.8591459  43.1685053
  41.6467511  75.9308105  43.3675940  41.2353642  76.8730145  42.2563368
  44.3942790  74.5446369  46.3051773  44.4164487  74.6085702  45.3503752
  44.8110849  73.7050878  46.4992279  54.7726415  84.2801629  44.3430995
  55.2157561  83.5308954  43.9450119  53.8952925  84.2711765  43.9604727
  49.9062196  90.8331970  39.8237594  50.6013101  91.4538663  40.0424908
  50.2485346  89.9827321  40.0989972  35.5230005  82.6549771  53.6834411
  34.7811741  82.8032406  54.2699042  35.2022749  82.9158037  52.8201161
  51.8053619  88.2831676  41.3524925  52.3304943  88.6218948  40.6274245
  51.7175972  87.3478691  41.1688059  43.4673668  92.1965749  53.4814801
  43.7760794  91.9514896  54.3537501  44.2649150  92.4012388  52.9933671
  43.4894280  94.3503659  45.7120178  43.0499270  93.8580038  46.4053034
  44.2402397  93.8076626  45.4712253  35.9686619  90.5415200  45.7144806
  36.7944639  90.2418972  45.3343449  35.6180671  89.7722822  46.1634594
  40.9368152  89.8941668  47.7842479  40.3148161  89.2312373  47.4844707
  41.6073019  89.9202800  47.1016127  34.1695224  88.4601526  46.6733739
  33.3327132  88.0323700  46.4917741  34.1418869  88.6533969  47.6104531
  41.0092680  78.3723456  57.3774985  41.0580835  79.2485579  56.9952755
  41.5515194  77.8300849  56.8046629  51.4947525  88.9164579  56.6576123
  50.7043069  88.8988718  56.1180622  51.2580880  89.4552873  57.4125159
  51.6145400  85.7657046  53.9708851  51.6643405  85.6007053  54.9124374
  51.5059324  84.8984305  53.5806732  40.4981659  88.4445591  41.2600940
  40.6469779  89.1281056  40.6067613  41.3048102  88.4250681  41.7750396
  48.9049163  81.7487974  55.2868158  49.8059025  81.6094438  54.9952156
  48.9797137  81.9142428  56.2266335  43.2391968  79.1254828  54.1321344
  42.3695277  79.4188394  53.8603933  43.4751448  79.7095273  54.8528608
  53.1163597  88.1853987  54.2150873  52.8248405  88.5483968  55.0514334
  52.5035728  87.4720995  54.0364205  54.3159279  85.7506867  46.7353443
  55.1506171  86.1896671  46.8991003  54.4518408  85.2745520  45.9161689
  51.3650785  83.3086602  52.6830931  51.8404907  83.5014248  51.8749782
  50.4416351  83.3645788  52.4374314  38.2534292  84.4710769  42.2662009
  38.0080334  83.5673099  42.4642219  38.4230206  84.4727919  41.3241487
  45.9431002  75.3434445  51.6486765  46.4612946  76.0795472  51.3233253
  45.5886135  75.6498439  52.4833524  37.5229939  80.2039126  39.7648170
  36.8299184  80.2783481  39.1088206  37.2781691  79.4399470  40.2869687
  46.1943596  71.7634728  47.1687661  46.4745350  71.0957917  47.7948088
  46.9794203  71.9563823  46.6562325  43.9977064  90.9393722  38.7312687
  43.4251032  91.5583909  38.2783159  44.5709858  91.4893083  39.2652609
  50.0652454  80.1852362  50.9159236  51.0169877  80.2850459  50.9371460
  49.8955905  79.3930630  51.4257321  48.0866834  77.2707945  51.1018637
  47.4916766  77.5512958  50.4065126  47.8016530  77.7601846  51.8735378
  47.2174324  91.2230872  39.8621270  48.1504997  91.1576434  40.0654145
  47.1297537  92.0587139  39.4035802  49.8462341  90.5396742  36.8225217
  49.7675972  90.2056606  37.7160975  50.6672008  91.0318510  36.8216690
  52.5440532  83.4058481  50.0301536  52.5116852  82.4674482  50.2161220
  53.1541156  83.4842518  49.2967361  44.3823863  82.2754534  36.0728740
  45.3282968  82.1460743  36.1417158  44.0038108  81.5369196  36.5498168
  52.6935021  80.1969525  50.0759819  52.1774069  79.4127982  49.8889748
  53.5774969  79.8688242  50.2406339  50.3545747  73.9410540  46.0355632
  50.1570569  73.6325629  46.9198964  50.9645453  74.6672179  46.1653562
  58.3617082  84.4674488  49.1707573  59.0920470  84.2059776  49.7315276
  57.7524027  83.7303210  49.2109641  56.4432379  82.6082351  49.7682024
  55.7165543  82.4738316  49.1598515  56.0279666  82.9159180  50.5738742
  44.2662555  86.3272281  57.5329397  45.1865565  86.5050880  57.7269443
  44.2312139  85.3828326  57.3809096  42.5666780  80.2004511  36.0083625
  41.6598235  79.9037624  36.0846339  42.8442761  79.9034329  35.1417911
  33.4844720  81.5210874  46.4582672  33.1647505  80.6676182  46.1657046
  32.9378149  81.7359452  47.2140639  37.2624628  84.2373315  50.1752178
  37.4810638  85.1690423  50.1940212  37.6750402  83.8781290  50.9606982
  44.1828846  74.7441401  42.1627866  43.3729574  74.3988486  42.5383112
  44.8713263  74.4348944  42.7515478  46.1119394  73.8219447  43.7852163
  46.6650433  74.2414901  44.4442186  46.3489480  72.8955195  43.8275119
  42.1352493  79.8106521  59.5654927  42.0349220  80.7600878  59.4967018
  41.9174035  79.4824760  58.6930997  41.3365565  77.0591446  36.1495604
  42.1984729  77.3846344  36.4091422  41.5215909  76.2722942  35.6368670
  33.3532980  85.1413786  48.4275793  32.6596452  84.7267739  47.9145748
  34.1005971  85.1834322  47.8309212  49.4898201  75.9319973  43.2930827
  48.9096870  76.5904777  42.9108880  49.2234134  75.1097317  42.8818245
  47.9401768  75.3325030  45.4952148  48.4401546  75.4441565  44.6866466
  48.5837375  75.0286083  46.1352956  41.9983763  83.2403660  58.3819989
  41.5150845  84.0404020  58.5883878  42.0844702  83.2511605  57.4287433
  35.2669723  85.0732040  46.3041808  35.2440411  85.1719727  45.3523691
  35.5770360  85.9197190  46.6258974  37.9257101  87.1308195  50.4188422
  38.8800354  87.0992137  50.3518354  37.7269624  86.6698818  51.2338648
  38.5156483  85.7009311  52.9859220  39.3349372  86.1953389  53.0094057
  38.7893291  84.7841279  52.9576788  48.2723079  78.0920063  42.3487176
  47.3848934  78.3769714  42.1307370  48.6877068  77.9313826  41.5014452
  51.6237615  78.1166584  46.0641515  52.3998005  78.6063036  46.3366132
  50.8985750  78.5424638  46.5213384  54.0610174  78.8294203  47.1215455
  54.6554665  78.5889939  46.4108764  54.1336758  78.1101334  47.7488992
  36.2807330  92.6727814  47.4358620  36.1461798  91.9128215  46.8696618
  35.8639392  93.3968714  46.9687409  47.4166293  87.8564738  36.4435196
  48.1202143  88.0614740  37.0592851  46.6928941  88.4241499  36.7084279
  48.2464103  83.6074599  42.5637466  48.1899304  84.0643150  41.7245098
  48.7992445  82.8465283  42.3860308  52.0568909  79.3964331  43.3887585
  51.8005843  78.9960966  44.2195793  51.4321777  80.1108125  43.2637724
  56.3681247  82.1360404  45.8958877  55.8080805  82.2053593  46.6690439
  55.7624750  81.9601389  45.1758373  39.4376456  93.5697131  47.6477063
  39.3208840  94.5142564  47.5455753  38.6168902  93.2670693  48.0362862
  49.3252990  88.2947267  38.4933656  50.1598594  87.8628465  38.3111130
  49.1637333  88.1229280  39.4210550  48.9798882  84.7979380  39.8589995
  48.9247686  84.6323652  38.9178439  48.3544938  85.5055413  40.0152185
  33.7691397  80.0347444  53.6851417  34.4150261  79.5246398  54.1738642
  33.5608548  80.7716126  54.2594842  46.2944789  87.1028292  59.1843558
  47.1635949  87.2768944  58.8230193  45.8151541  87.9222709  59.0619287
  42.2895008  74.2987489  39.4375313  42.2773678  75.2429329  39.5943584
  43.1818430  74.1157634  39.1434775  40.4630970  94.2225393  50.8632991
  41.3658216  94.2549003  51.1799486  40.2368340  93.2925844  50.8779327
  42.2184572  92.9756379  47.5243070  41.2680203  92.9758241  47.4107442
  42.5217058  92.2289114  47.0079105  46.1047127  70.8930266  43.6921250
  45.3379523  70.3388752  43.8377932  46.5157832  70.9652134  44.5535402
  38.1088888  77.1815062  57.7826431  38.9720350  76.8251866  57.9929756
  37.5354299  76.8428956  58.4701836  57.9537265  98.8116918  48.5888832
  58.5915675  98.6923665  47.8852172  57.8358108  99.7597762  48.6476785
  54.7626971  98.7644346  48.5250357  54.4245483  98.6485411  47.6370892
  55.6316740  98.3635511  48.5051363  50.6213787 100.6179822  44.5147248
  50.0578652 100.5269759  43.7463536  50.5066182  99.7979727  44.9949741
  55.2446754  99.9179198  54.4836563  55.2335395  99.5231996  53.6117066
  55.4067394  99.1845270  55.0770334  48.1678219 102.1131014  47.3531468
  48.9599511 101.7721839  46.9377768  48.4074869 102.2225989  48.2733622
  56.2013346 104.2850790  39.8261713  55.5501326 104.8704871  39.4395727
  56.9957709 104.8156985  39.8856750  50.1268973 101.3739927  40.2248847
  50.8999849 100.8268914  40.0861723  50.4794372 102.2384177  40.4363309
  51.9654016 102.7016310  53.4315747  51.6743882 103.6061940  53.3162413
  52.6011000 102.7432837  54.1459816  52.8910222 100.0793158  50.0217106
  53.4873795  99.8549180  49.3074069  52.9485194  99.3377904  50.6242554
  52.4635251  97.5332593  37.8567297  52.7160772  97.0114115  37.0950760
  51.5259810  97.3698739  37.9593981  57.5078534  96.5368372  45.6642040
  58.2941623  96.1187795  45.3132457  57.7717238  97.4414464  45.8323689
  57.6788611 101.9741222  40.3630697  57.0434444 102.0475849  41.0751602
  57.3486017 102.5634821  39.6849776  62.9086961  96.4743605  46.5675019
  63.6412133  95.9042822  46.8012848  62.1526317  96.0865205  47.0081524
  52.1831540  99.4360699  40.0591672  52.0667798  98.7605603  40.7272756
  52.2933799  98.9493073  39.2423825  54.5263081  98.8970846  43.7638361
  54.1621288  98.3701467  44.4751283  55.3830196  98.5069315  43.5904847
  60.4312381  90.1865179  51.0269628  60.0995706  91.0560590  50.8030842
  59.8357995  89.8701463  51.7063658  54.1668568  93.9260746  38.7599710
  54.3342970  94.7940983  39.1270181  53.9765737  94.0888028  37.8360999
  56.9243901 102.3877725  50.4265540  56.6244624 103.2902764  50.3181347
  56.5794960 102.1209908  51.2786693  50.3756382  98.8391522  46.4602245
  49.4506879  98.7067736  46.6679936  50.6240795  99.6185741  46.9572187
  60.3241044  94.9060265  48.1062978  59.4157922  94.8375674  47.8121739
  60.2728640  95.3832210  48.9344803  54.1457788  96.3818404  39.7446377
  54.0257414  96.8275454  40.5831857  53.4510377  96.7303721  39.1859915
  47.7365193  98.4824795  47.2946034  47.8657574  98.7359274  48.2085445
  47.0562645  99.0752503  46.9750689  51.9064680 109.1522045  43.3936508
  51.8288710 110.1029870  43.4724989  51.3026324 108.8067918  44.0511434
  54.3981910  96.3249911  56.0497875  53.6215244  96.8843831  56.0400739
  55.0372473  96.8106694  56.5712745  62.1902691  93.1076704  49.8840851
  61.5477071  93.4009237  49.2380646  61.6857619  92.9929624  50.6894048
  59.8442855  96.8539877  40.5726711  60.7560711  97.0867264  40.3974408
  59.3352502  97.4376921  40.0101789  52.6528283  99.1335364  55.6115842
  53.3942967  99.6720408  55.3350665  51.9465268  99.7601653  55.7687394
  58.1283622 101.2764505  54.2088003  58.5366978 100.8346915  53.4642636
  57.4060884 100.7017132  54.4622196  54.4814692  96.2137111  51.5821560
  55.3275887  96.6376525  51.7256209  54.4213330  95.5570736  52.2760123
  58.4512437 101.8365695  47.9640292  57.8221299 102.0011409  47.2616360
  58.0638099 102.2507305  48.7351256  62.3301669 102.7720133  45.3184656
  61.6452707 103.1519034  44.7681689  62.4145518 103.3815460  46.0516604
  57.6314138  93.8741480  53.2402734  57.3875069  94.6283540  52.7037010
  57.9074068  94.2526827  54.0749981  59.5852600 100.4180092  51.9179999
  59.7969496 101.0611852  51.2414381  59.5382349  99.5842409  51.4501930
  57.1878829  93.0297913  48.8216572  56.3263308  93.3279166  49.1133309
  57.2141264  93.2468312  47.8897604  54.0040399 101.5740103  45.2290377
  54.4678744 101.8527806  44.4395000  53.7397197 100.6723548  45.0463468
  50.8964480 101.1211585  48.1670141  51.4665837 101.5498853  47.5287625
  51.4872592 100.8394170  48.8654326  52.9409285  97.6963256  42.0379942
  53.6433328  98.1484299  42.5053869  52.6089913  97.0547075  42.6659836
  51.3889646  96.2875012  56.4131152  50.7588307  96.9691293  56.6466549
  51.2825734  96.1758094  55.4684290  46.6834619  95.9546808  47.3397076
  45.8933673  96.2104337  46.8637187  47.1745866  96.7695146  47.4449117
  60.6998428 103.2952048  50.0902357  61.5215872 102.8932235  49.8085038
  60.6960831 103.1920282  51.0418473  48.6349364  96.3191388  44.2980553
  47.8380527  96.4310082  44.8164048  48.4074956  96.6578040  43.4321443
  54.4655032 102.8436091  52.2463067  54.5299464 103.3056498  53.0821239
  53.7565956 102.2133456  52.3745377  44.9672322  96.2077299  49.7712067
  45.2180360  97.0924309  50.0369643  45.5031870  96.0281900  48.9987159
  68.7904421  99.6390796  46.4387328  68.0368130  99.0698194  46.2831333
  68.9251963  99.6053461  47.3857963  54.1803049 104.5104198  42.1142048
  54.0448724 105.3555734  42.5426895  54.7212862 104.7123476  41.3507981
  50.6670389  90.5895778  58.7756403  50.2737335  90.0361977  59.4504047
  51.4836529  90.9006357  59.1662920  47.6332447 102.0279636  42.6869973
  48.1456967 102.8222887  42.8375537  48.2855160 101.3305927  42.6203574
  49.4427331 105.1445393  44.7692726  49.6193960 106.0663357  44.5813710
  50.2384165 104.8303812  45.1987106  53.5838350  92.0053657  56.3676659
  54.3248063  92.6060810  56.2881122  53.8156273  91.2631295  55.8094702
  48.7279688  97.1910025  54.6454889  48.6133203  96.2895282  54.9461988
  47.8724206  97.4373721  54.2939706  55.8071526 105.1327765  56.2442390
  55.3635380 104.3464143  55.9263294  56.4688739 105.3206915  55.5786281
  50.5658647 106.6623566  50.7703068  51.1166072 106.5340630  49.9980062
  49.7270123 106.9618455  50.4197961  57.9052764 105.4130565  54.2723791
  57.8871239 106.2339446  53.7804060  58.8272684 105.2884640  54.4973932
  54.3625818 102.9274694  55.1147299  54.8954155 102.1662982  54.8846607
  53.8339899 102.6348346  55.8571454  57.5295513  88.0334760  50.6440941
  57.1859782  88.9236402  50.5680052  57.8974476  87.8436418  49.7810526
  45.5981364 100.3568291  43.4629543  46.4356586 100.7665299  43.2463251
  45.7759631  99.4167733  43.4329737  57.4945796  98.0243371  39.1513376
  56.9792419  98.7947976  39.3901764  57.2223104  97.3508507  39.7746438
  55.0792907  92.8693072  44.2098615  54.2234503  92.4799922  44.0304253
  55.4919858  92.9485033  43.3498400  56.6092053  90.4039415  48.6090174
  56.1056849  90.3669551  47.7957980  56.9022660  91.3132158  48.6686831
  52.8534939  90.4878145  47.6156356  53.7187936  90.2920954  47.2562246
  52.9212448  90.2588497  48.5425713  62.4680070 100.7775726  41.0866550
  61.6909513 100.4386885  40.6421712  63.1471551 100.7828349  40.4121515
  57.2832099  95.8970463  40.9773157  56.9782234  96.2116613  41.8283301
  58.2362541  95.9751883  41.0200490  55.7278531 102.0560687  42.6266111
  55.1999892 101.3213446  42.3139349  55.2266033 102.8335363  42.3806080
  60.7071377 100.2509707  47.7433158  60.0495051 100.9408969  47.8313286
  61.5111776 100.6406139  48.0867144  50.4597258  92.7180353  44.9872723
  51.0341010  92.4955535  44.2545916  51.0468241  92.7869048  45.7401324
  59.5176836  98.6054080  45.7937099  60.0308717  99.2384072  46.2958809
  60.1678059  98.0055275  45.4280459  50.7866845  94.7484814  39.0068608
  49.9504158  95.0859501  39.3277883  50.6471615  94.6133794  38.0695745
  52.7619926  89.5921602  43.7147792  52.1084338  89.2770619  43.0904407
  52.7200400  88.9697342  44.4407615  53.8731131  99.8740897  35.6301084
  52.9658193  99.6430150  35.8292233  54.3702163  99.0778516  35.8175066
  56.7799210 108.5838404  38.5497771  56.1060909 108.8870101  39.1582728
  57.1665032 109.3867485  38.2003228  55.9957666  96.0803535  48.0395440
  55.0780228  96.3018482  47.8817128  56.4117810  96.1549846  47.1807147
  56.7792714  97.4794951  43.1698120  57.5264533  97.9916348  42.8605242
  57.0484304  97.1579004  44.0302514  55.0519364  99.9753492  40.1525075
  54.1430584  99.6912525  40.2497544  55.0814448 100.3952570  39.2928381
  60.2838632 103.5860081  43.9216242  59.8300959 102.7450991  43.9781433
  59.6532598 104.2221480  44.2591022  59.2271551  94.5152067  45.1516910
  58.4894308  94.0029454  45.4827152  59.4798325  94.0752449  44.3400186
  58.7271571 105.4236578  44.8566060  59.0194545 105.9841635  44.1378426
  59.2370192 105.7165139  45.6119219  59.3283179  87.2928319  45.7458679
  59.6342055  86.4325683  45.4584594  60.0535783  87.8845940  45.5457673
  45.6207535  97.6959006  44.1340277  45.4231935  97.1028367  43.4091343
  45.0654199  97.3911216  44.8516216  53.6004258  97.5882112  46.2534870
  53.6552868  96.6355949  46.1777346  52.7895460  97.7441552  46.7376168
  54.7495452 101.5162236  37.4913153  54.3114882 100.7998094  37.0318790
  55.4905893 101.7438350  36.9298244  51.5396618  96.2059172  44.0125249
  50.7264484  96.5053343  44.4190441  52.0355612  95.8114861  44.7299731
  53.6905196 106.2016929  45.9459513  53.6481375 106.4277775  45.0168045
  54.6067895 105.9680304  46.0945315  57.1370830  96.6700997  52.8440143
  57.4920218  96.8972470  53.7034608  57.7842961  97.0019373  52.2217398
  62.8668567  99.7919433  43.5489472  62.7286466  99.9821029  42.6210661
  62.5104786 100.5538815  44.0057523  51.0310693  93.7777528  49.6286484
  51.6710072  93.6366287  48.9309447  50.1988224  93.4912041  49.2525086
  62.8937947 101.8595960  48.5600743  63.3274453 101.7671249  49.4083797
  63.6069527 101.8353460  47.9220759  51.8070997 103.0779958  45.7421476
  52.6011595 102.5830278  45.5404051  51.0962689 102.5497821  45.3789182
  56.6265841 105.4598054  50.0933844  56.6802864 106.0288990  50.8611560
  55.7580623 105.6299939  49.7287881  48.1153760  97.2223040  41.8181229
  47.1851349  97.1607495  42.0351191  48.2111232  96.6998993  41.0217870
  48.0339309  93.7477853  44.4059471  48.2946127  94.6623186  44.2968631
  48.8556482  93.2802295  44.5556083  49.5064235  95.1615610  51.5758295
  50.1787288  94.9532972  50.9270944  48.6794021  94.9637696  51.1363527
  63.7553496 101.9019660  51.0933629  63.9489386 102.8065471  51.3392904
  63.6554114 101.4427079  51.9272214  55.4089807  91.7877551  53.5923956
  54.7617722  92.4867500  53.4988432  56.1790822  92.2213695  53.9600204
  58.8168605 102.0526403  56.6674509  58.6654111 101.8236955  55.7504593
  58.8073284 103.0097004  56.6805854  55.5853941  99.6258316  51.6520776
  56.5146001  99.7769475  51.4789743  55.1644971  99.7142337  50.7969422
  54.3842273 103.6508980  49.4219313  54.2453359 103.2827765  50.2945251
  53.5956869 104.1656620  49.2503271  54.9790425 108.7518077  40.7644850
  55.1542181 108.2806120  41.5790472  54.2923213 109.3783843  40.9926111
  55.9347488 103.0290583  46.8108151  55.5997321 102.9891353  47.7065801
  55.4351434 102.3635299  46.3378561  49.9091732  98.4358213  52.3360732
  49.7711530  97.7038452  52.9372271  50.8196656  98.3467113  52.0544920
  58.8706680 100.3746617  37.0845211  58.2535850  99.6493445  36.9878263
  58.4023168 101.1355977  36.7412285  52.5374033  98.1478172  51.8244412
  53.2473651  97.5071364  51.7831030  52.4943341  98.3991067  52.7470593
  60.5260811 105.0845526  54.7450991  60.4673358 104.4004746  54.0781574
  60.9280330 105.8264516  54.2931617  51.2502967  95.1343390  53.6440051
  50.7140324  94.6834129  54.2961648  50.6619675  95.2689299  52.9010516
  49.5451510 111.9007439  47.5384710  49.7848108 112.5325964  48.2163729
  48.7020707 111.5495479  47.8250069  50.6605226  94.5932041  36.2066515
  49.7834692  94.4720842  35.8428762  51.1362979  93.8018120  35.9545404
  60.5278219 103.0485109  52.9764971  59.6404997 102.7111031  53.0991370
  61.0976770 102.3168141  53.2133736  42.1807366  99.3809201  46.3008022
  42.8678406  99.0670931  45.7129037  42.0255494 100.2850566  46.0275274
  46.9842088  94.2699398  50.7293046  46.9000277  93.6625067  49.9943456
  46.1624794  94.7608416  50.7302542  54.0579372 107.7086562  49.9426214
  53.9849544 108.5141533  50.4545518  53.6156765 107.9078528  49.1174235
  53.8469152 106.9458332  43.4529035  53.0636674 107.4880012  43.5467260
  54.5461897 107.4632311  43.8523277  57.1565802  92.7552961  46.0963241
  57.6534501  92.0022924  45.7764311  56.3852783  92.7917278  45.5306450
  65.0095559  98.4593327  47.7381532  64.9985435  99.3418042  47.3675465
  64.1412939  98.1064878  47.5436069  56.5178056 107.6073396  52.0984373
  57.2306028 108.2420861  52.0260274  56.0268084 107.7037262  51.2824374
  58.2395582 101.5124649  43.6701664  57.3051861 101.6326111  43.5006369
  58.4172251 100.6097115  43.4061674  53.7400771  94.8970344  45.8234925
  53.3698558  94.3441385  46.5115831  54.2359863  94.2928478  45.2709926
  61.6268134  97.3541968  44.2051698  62.0928586  98.1869959  44.1312001
  62.0775634  96.8886949  44.9096957  51.5689969 105.3567839  52.9189943
  52.2699429 105.9904322  53.0719338  51.0985084 105.6982571  52.1585583
  59.6944365 103.6985789  41.2037850  59.9704209 103.5842384  42.1131725
  58.8248864 103.3003274  41.1650024  59.5984797  89.7222555  48.2442600
  58.6847876  89.9526782  48.4124807  60.0277898  89.8060999  49.0956632
  59.3691255  97.9112447  50.7442494  58.7162705  98.1588354  50.0894947
  59.7471635  97.0976585  50.4104971  56.3298429 107.9472140  44.8470664
  56.5120823 107.1293796  45.3098416  57.1531415 108.1639832  44.4095554
  56.6640594 106.8740325  42.1085713  57.1928361 106.3632780  41.4955875
  56.9268814 106.5582855  42.9731246  55.4178828  98.6532258  57.2308531
  54.7419465  98.5526387  57.9010906  56.2406462  98.4971472  57.6944528
  47.1657687 104.8904194  49.8521046  47.7511124 104.1447882  49.9848950
  46.9682526 105.2008151  50.7357710  50.0196342 107.9255442  44.8683488
  49.3506718 108.4101569  44.3847529  49.8809212 108.1724662  45.7826867
  41.7575342  97.4609795  48.5725489  41.7959441  96.9273385  49.3662607
  41.2515635  96.9345000  47.9536466  54.1601611 109.9599185  51.4666147
  54.7119919 110.1230807  52.2315232  54.5007804 110.5503623  50.7946172
  49.1366104  92.3074335  52.0688032  49.2007431  93.1689166  51.6565429
  49.0733224  91.6948337  51.3360390  48.6118377  94.3797468  55.7161066
  49.2390416  93.9974545  56.3298590  47.7546296  94.1611670  56.0816758
  59.0112485 104.7860443  57.3214801  59.5552389 105.3990401  56.8269756
  58.4299330 105.3440021  57.8381814  45.3883920  96.1873897  41.6479421
  45.6837361  95.2784575  41.5946474  44.4871955  96.1661636  41.3260423
  57.2969998 107.9081161  48.4529829  57.1721138 107.1070901  47.9440774
  57.9549089 108.4027354  47.9643799  48.9178167  94.2629893  47.6306969
  48.1964752  94.8765861  47.4914443  49.7071422  94.7987658  47.5523615
  59.3604907 105.7090181  50.0809379  58.4135242 105.5895532  50.0087706
  59.7087680 104.8212679  50.1635641  51.7204480  91.5984320  53.9047621
  52.2438882  91.8446616  54.6673930  51.5016813  92.4304355  53.4850758
  47.1171761  93.8687994  41.7718746  46.7884467  92.9885373  41.5893852
  47.4711132  93.8135663  42.6595135  56.3651340 105.5042897  46.2813731
  56.2176302 104.5759605  46.4621301  57.1904833 105.5262988  45.7970807
  50.2313584  94.1560964  42.1394223  50.5709657  94.6846885  41.4172832
  50.6785705  94.4941370  42.9152790  59.9685462 106.3271456  47.3678604
  60.8932009 106.1214317  47.2303055  59.8000765 106.0787857  48.2767946
  52.9257025  92.5398015  51.5897292  52.5853845  91.7405828  51.9917971
  52.2196031  92.8399726  51.0174125  53.5773497  89.6247327  50.0424615
  54.3999566  89.1507806  49.9203505  53.8211560  90.4037811  50.5423301
  52.2181731  92.6535586  40.3387516  52.9390094  93.0316839  39.8351233
  51.5947036  93.3724463  40.4422494  56.3612854  93.3580735  41.2745849
  56.5776469  94.2405373  40.9734677  55.8806921  92.9666948  40.5451491
  51.1012076  96.3166448  47.8516593  50.9556656  96.6306751  48.7440875
  50.6237279  96.9351348  47.2987492  52.9608459  93.3068996  47.8997483
  52.9470027  92.4110089  47.5629781  53.6780887  93.3139660  48.5335769
  54.8134589  93.7406336  49.9450610  54.5552367  94.6623407  49.9434941
  54.2819630  93.3436771  50.6351074  59.7580778 106.8457123  42.7240696
  59.9317656 106.2803546  41.9714548  60.2509669 107.6458018  42.5420185
  45.5757738  98.8571792  50.7904254  45.0311206  99.6331600  50.9224529
  46.4537088  99.2042597  50.6323376  52.3645354  92.1883376  43.1685053
  52.4861266  91.2600022  43.3675940  52.0747397  92.2022062  42.2563368
  55.2336545  89.8738287  46.3051773  55.2558242  89.9377620  45.3503752
  55.6504604  89.0342795  46.4992279  65.6120169  99.6093546  44.3430995
  66.0551315  98.8600871  43.9450119  64.7346679  99.6003683  43.9604727
  60.7455950 106.1623888  39.8237594  61.4406855 106.7830580  40.0424908
  61.0879101 105.3119239  40.0989972  46.3623760  97.9841689  53.6834411
  45.6205496  98.1324324  54.2699042  46.0416504  98.2449954  52.8201161
  62.6447374 103.6123593  41.3524925  63.1698698 103.9510866  40.6274245
  62.5569726 102.6770609  41.1688059  54.3067422 107.5257667  53.4814801
  54.6154549 107.2806814  54.3537501  55.1042904 107.7304305  52.9933671
  54.3288034 109.6795576  45.7120178  53.8893025 109.1871955  46.4053034
  55.0796151 109.1368544  45.4712253  46.8080373 105.8707117  45.7144806
  47.6338393 105.5710889  45.3343449  46.4574425 105.1014740  46.1634594
  51.7761907 105.2233586  47.7842479  51.1541916 104.5604291  47.4844707
  52.4466773 105.2494717  47.1016127  45.0088978 103.7893444  46.6733739
  44.1720887 103.3615618  46.4917741  44.9812624 103.9825887  47.6104531
  51.8486434  93.7015374  57.3774985  51.8974589  94.5777496  56.9952755
  52.3908948  93.1592767  56.8046629  62.3341280 104.2456497  56.6576123
  61.5436823 104.2280636  56.1180622  62.0974634 104.7844791  57.4125159
  62.4539155 101.0948963  53.9708851  62.5037160 100.9298971  54.9124374
  62.3453078 100.2276222  53.5806732  51.3375413 103.7737509  41.2600940
  51.4863534 104.4572973  40.6067613  52.1441857 103.7542599  41.7750396
  59.7442917  97.0779891  55.2868158  60.6452780  96.9386356  54.9952156
  59.8190892  97.2434346  56.2266335  54.0785722  94.4546746  54.1321344
  53.2089032  94.7480312  53.8603933  54.3145203  95.0387191  54.8528608
  63.9557352 103.5145905  54.2150873  63.6642160 103.8775885  55.0514334
  63.3429483 102.8012913  54.0364205  65.1553034 101.0798785  46.7353443
  65.9899925 101.5188589  46.8991003  65.2912163 100.6037438  45.9161689
  62.2044540  98.6378519  52.6830931  62.6798661  98.8306166  51.8749782
  61.2810105  98.6937705  52.4374314  49.0928046  99.8002687  42.2662009
  48.8474088  98.8965017  42.4642219  49.2623961  99.8019837  41.3241487
  56.7824756  90.6726363  51.6486765  57.3006700  91.4087390  51.3233253
  56.4279889  90.9790356  52.4833524  48.3623694  95.5331044  39.7648170
  47.6692939  95.6075399  39.1088206  48.1175446  94.7691388  40.2869687
  57.0337350  87.0926645  47.1687661  57.3139104  86.4249835  47.7948088
  57.8187957  87.2855741  46.6562325  54.8370819 106.2685639  38.7312687
  54.2644786 106.8875827  38.2783159  55.4103613 106.8185001  39.2652609
  60.9046209  95.5144279  50.9159236  61.8563632  95.6142377  50.9371460
  60.7349659  94.7222548  51.4257321  58.9260588  92.5999863  51.1018637
  58.3310520  92.8804875  50.4065126  58.6410285  93.0893764  51.8735378
  58.0568079 106.5522790  39.8621270  58.9898752 106.4868351  40.0654145
  57.9691292 107.3879056  39.4035802  60.6856095 105.8688660  36.8225217
  60.6069727 105.5348523  37.7160975  61.5065762 106.3610428  36.8216690
  63.3834287  98.7350399  50.0301536  63.3510607  97.7966400  50.2161220
  63.9934910  98.8134436  49.2967361  55.2217617  97.6046452  36.0728740
  56.1676722  97.4752660  36.1417158  54.8431862  96.8661114  36.5498168
  63.5328775  95.5261443  50.0759819  63.0167824  94.7419899  49.8889748
  64.4168724  95.1980159  50.2406339  61.1939502  89.2702458  46.0355632
  60.9964323  88.9617546  46.9198964  61.8039208  89.9964097  46.1653562
  69.2010836  99.7966406  49.1707573  69.9314225  99.5351694  49.7315276
  68.5917782  99.0595128  49.2109641  67.2826134  97.9374269  49.7682024
  66.5559297  97.8030234  49.1598515  66.8673420  98.2451097  50.5738742
  55.1056310 101.6564198  57.5329397  56.0259319 101.8342797  57.7269443
  55.0705893 100.7120244  57.3809096  53.4060535  95.5296429  36.0083625
  52.4991990  95.2329541  36.0846339  53.6836516  95.2326247  35.1417911
  44.3238475  96.8502792  46.4582672  44.0041259  95.9968100  46.1657046
  43.7771903  97.0651370  47.2140639  48.1018383  99.5665233  50.1752178
  48.3204392 100.4982341  50.1940212  48.5144156  99.2073207  50.9606982
  55.0222600  90.0733318  42.1627866  54.2123329  89.7280403  42.5383112
  55.7107017  89.7640862  42.7515478  56.9513149  89.1511365  43.7852163
  57.5044187  89.5706818  44.4442186  57.1883235  88.2247113  43.8275119
  52.9746248  95.1398439  59.5654927  52.8742975  96.0892796  59.4967018
  52.7567790  94.8116678  58.6930997  52.1759319  92.3883364  36.1495604
  53.0378483  92.7138262  36.4091422  52.3609663  91.6014860  35.6368670
  44.1926735 100.4705703  48.4275793  43.4990206 100.0559656  47.9145748
  44.9399726 100.5126240  47.8309212  60.3291956  91.2611890  43.2930827
  59.7490625  91.9196694  42.9108880  60.0627888  90.4389235  42.8818245
  58.7795522  90.6616948  45.4952148  59.2795300  90.7733482  44.6866466
  59.4231130  90.3578001  46.1352956  52.8377518  98.5695578  58.3819989
  52.3544600  99.3695938  58.5883878  52.9238457  98.5803522  57.4287433
  46.1063478 100.4023957  46.3041808  46.0834166 100.5011644  45.3523691
  46.4164114 101.2489108  46.6258974  48.7650855 102.4600112  50.4188422
  49.7194109 102.4284055  50.3518354  48.5663379 101.9990736  51.2338648
  49.3550238 101.0301228  52.9859220  50.1743127 101.5245307  53.0094057
  49.6287045 100.1133196  52.9576788  59.1116834  93.4211981  42.3487176
  58.2242689  93.7061631  42.1307370  59.5270823  93.2605744  41.5014452
  62.4631370  93.4458502  46.0641515  63.2391760  93.9354954  46.3366132
  61.7379504  93.8716556  46.5213384  64.9003928  94.1586121  47.1215455
  65.4948419  93.9181857  46.4108764  64.9730512  93.4393251  47.7488992
  47.1201084 108.0019732  47.4358620  46.9855552 107.2420133  46.8696618
  46.7033146 108.7260632  46.9687409  58.2560047 103.1856655  36.4435196
  58.9595897 103.3906658  37.0592851  57.5322696 103.7533417  36.7084279
  59.0857857  98.9366517  42.5637466  59.0293059  99.3935068  41.7245098
  59.6386200  98.1757201  42.3860308  62.8962663  94.7256248  43.3887585
  62.6399598  94.3252884  44.2195793  62.2715531  95.4400042  43.2637724
  67.2075001  97.4652322  45.8958877  66.6474559  97.5345511  46.6690439
  66.6018505  97.2893306  45.1758373  50.2770210 108.8989049  47.6477063
  50.1602594 109.8434481  47.5455753  49.4562656 108.5962610  48.0362862
  60.1646745 103.6239184  38.4933656  60.9992349 103.1920383  38.3111130
  60.0031088 103.4521198  39.4210550  59.8192637 100.1271298  39.8589995
  59.7641441  99.9615569  38.9178439  59.1938692 100.8347331  40.0152185
  44.6085152  95.3639362  53.6851417  45.2544015  94.8538316  54.1738642
  44.4002303  96.1008044  54.2594842  57.1338544 102.4320210  59.1843558
  58.0029704 102.6060862  58.8230193  56.6545295 103.2514626  59.0619287
  53.1288762  89.6279407  39.4375313  53.1167432  90.5721247  39.5943584
  54.0212184  89.4449552  39.1434775  51.3024724 109.5517311  50.8632991
  52.2051971 109.5840921  51.1799486  51.0762094 108.6217762  50.8779327
  53.0578326 108.3048297  47.5243070  52.1073957 108.3050159  47.4107442
  53.3610812 107.5581032  47.0079105  56.9440882  86.2222183  43.6921250
  56.1773277  85.6680670  43.8377932  57.3551587  86.2944052  44.5535402
  48.9482643  92.5106979  57.7826431  49.8114104  92.1543784  57.9929756
  48.3748053  92.1720874  58.4701836  68.7931020 114.1408836  48.5888832
  69.4309430 114.0215583  47.8852172  68.6751863 115.0889680  48.6476785
  65.6020726 114.0936264  48.5250357  65.2639237 113.9777328  47.6370892
  66.4710494 113.6927429  48.5051363  61.4607542 115.9471740  44.5147248
  60.8972407 115.8561677  43.7463536  61.3459937 115.1271645  44.9949741
  66.0840509 115.2471115  54.4836563  66.0729150 114.8523914  53.6117066
  66.2461148 114.5137188  55.0770334  59.0071974 117.4422932  47.3531468
  59.7993266 117.1013756  46.9377768  59.2468624 117.5517907  48.2733622
  67.0407100 119.6142708  39.8261713  66.3895080 120.1996788  39.4395727
  67.8351463 120.1448903  39.8856750  60.9662728 116.7031845  40.2248847
  61.7393604 116.1560832  40.0861723  61.3188126 117.5676094  40.4363309
  62.8047770 118.0308227  53.4315747  62.5137636 118.9353858  53.3162413
  63.4404754 118.0724755  54.1459816  63.7303977 115.4085076  50.0217106
  64.3267549 115.1841098  49.3074069  63.7878948 114.6669821  50.6242554
  63.3029005 112.8624511  37.8567297  63.5554526 112.3406032  37.0950760
  62.3653564 112.6990656  37.9593981  68.3472288 111.8660289  45.6642040
  69.1335377 111.4479713  45.3132457  68.6110992 112.7706382  45.8323689
  68.5182366 117.3033140  40.3630697  67.8828198 117.3767766  41.0751602
  68.1879772 117.8926739  39.6849776  73.7480715 111.8035523  46.5675019
  74.4805887 111.2334739  46.8012848  72.9920071 111.4157123  47.0081524
  63.0225294 114.7652617  40.0591672  62.9061552 114.0897520  40.7272756
  63.1327554 114.2784991  39.2423825  65.3656835 114.2262764  43.7638361
  65.0015042 113.6993385  44.4751283  66.2223951 113.8361233  43.5904847
  71.2706136 105.5157097  51.0269628  70.9389460 106.3852508  50.8030842
  70.6751749 105.1993381  51.7063658  65.0062322 109.2552664  38.7599710
  65.1736724 110.1232900  39.1270181  64.8159491 109.4179946  37.8360999
  67.7637655 117.7169643  50.4265540  67.4638378 118.6194682  50.3181347
  67.4188715 117.4501826  51.2786693  61.2150137 114.1683440  46.4602245
  60.2900633 114.0359654  46.6679936  61.4634550 114.9477659  46.9572187
  71.1634799 110.2352183  48.1062978  70.2551676 110.1667591  47.8121739
  71.1122395 110.7124128  48.9344803  64.9851543 111.7110321  39.7446377
  64.8651168 112.1567372  40.5831857  64.2904131 112.0595639  39.1859915
  58.5758948 113.8116713  47.2946034  58.7051329 114.0651192  48.2085445
  57.8956399 114.4044421  46.9750689  65.2375665 111.6541828  56.0497875
  64.4608999 112.2135749  56.0400739  65.8766228 112.1398611  56.5712745
  73.0296445 108.4368621  49.8840851  72.3870826 108.7301154  49.2380646
  72.5251374 108.3221542  50.6894048  70.6836609 112.1831794  40.5726711
  71.5954465 112.4159181  40.3974408  70.1746256 112.7668839  40.0101789
  63.4922037 114.4627282  55.6115842  64.2336721 115.0012326  55.3350665
  62.7859023 115.0893571  55.7687394  68.9677377 116.6056422  54.2088003
  69.3760733 116.1638833  53.4642636  68.2454638 116.0309050  54.4622196
  65.3208447 111.5429029  51.5821560  66.1669642 111.9668443  51.7256209
  65.2607084 110.8862653  52.2760123  69.2906191 117.1657613  47.9640292
  68.6615054 117.3303327  47.2616360  68.9031853 117.5799222  48.7351256
  73.1695423 118.1012051  45.3184656  72.4846461 118.4810952  44.7681689
  73.2539273 118.7107377  46.0516604  68.4707892 109.2033397  53.2402734
  68.2268824 109.9575458  52.7037010  68.7467823 109.5818745  54.0749981
  70.4246355 115.7472010  51.9179999  70.6363250 116.3903770  51.2414381
  70.3776103 114.9134326  51.4501930  68.0272584 108.3589830  48.8216572
  67.1657063 108.6571084  49.1133309  68.0535018 108.5760229  47.8897604
  64.8434153 116.9032021  45.2290377  65.3072499 117.1819724  44.4395000
  64.5790951 116.0015466  45.0463468  61.7358234 116.4503503  48.1670141
  62.3059591 116.8790771  47.5287625  62.3266346 116.1686087  48.8654326
  63.7803039 113.0255173  42.0379942  64.4827083 113.4776217  42.5053869
  63.4483668 112.3838992  42.6659836  62.2283401 111.6166930  56.4131152
  61.5982061 112.2983211  56.6466549  62.1219489 111.5050012  55.4684290
  57.5228373 111.2838726  47.3397076  56.7327427 111.5396255  46.8637187
  58.0139621 112.0987064  47.4449117  71.5392183 118.6243965  50.0902357
  72.3609627 118.2224153  49.8085038  71.5354586 118.5212199  51.0418473
  59.4743119 111.6483305  44.2980553  58.6774282 111.7602000  44.8164048
  59.2468711 111.9869958  43.4321443  65.3048786 118.1728009  52.2463067
  65.3693219 118.6348416  53.0821239  64.5959710 117.5425373  52.3745377
  55.8066076 111.5369216  49.7712067  56.0574115 112.4216226  50.0369643
  56.3425625 111.3573818  48.9987159  79.6298176 114.9682714  46.4387328
  78.8761884 114.3990112  46.2831333  79.7645717 114.9345378  47.3857963
  65.0196804 119.8396116  42.1142048  64.8842479 120.6847652  42.5426895
  65.5606616 120.0415394  41.3507981  61.5064144 105.9187696  58.7756403
  61.1131089 105.3653894  59.4504047  62.3230284 106.2298274  59.1662920
  58.4726201 117.3571554  42.6869973  58.9850722 118.1514804  42.8375537
  59.1248914 116.6597844  42.6203574  60.2821086 120.4737310  44.7692726
  60.4587714 121.3955275  44.5813710  61.0777920 120.1595730  45.1987106
  64.4232105 107.3345575  56.3676659  65.1641818 107.9352728  56.2881122
  64.6550027 106.5923213  55.8094702  59.5673443 112.5201942  54.6454889
  59.4526958 111.6187199  54.9461988  58.7117960 112.7665639  54.2939706
  66.6465280 120.4619683  56.2442390  66.2029134 119.6756061  55.9263294
  67.3082494 120.6498833  55.5786281  61.4052401 121.9915484  50.7703068
  61.9559827 121.8632547  49.9980062  60.5663877 122.2910373  50.4197961
  68.7446518 120.7422482  54.2723791  68.7264994 121.5631363  53.7804060
  69.6666438 120.6176558  54.4973932  65.2019573 118.2566612  55.1147299
  65.7347909 117.4954900  54.8846607  64.6733654 117.9640264  55.8571454
  68.3689267 103.3626678  50.6440941  68.0253537 104.2528320  50.5680052
  68.7368230 103.1728336  49.7810526  56.4375118 115.6860208  43.4629543
  57.2750340 116.0957217  43.2463251  56.6153386 114.7459651  43.4329737
  68.3339550 113.3535289  39.1513376  67.8186174 114.1239894  39.3901764
  68.0616859 112.6800425  39.7746438  65.9186661 108.1984990  44.2098615
  65.0628258 107.8091840  44.0304253  66.3313613 108.2776951  43.3498400
  67.4485808 105.7331333  48.6090174  66.9450603 105.6961468  47.7957980
  67.7416415 106.6424076  48.6686831  63.6928694 105.8170063  47.6156356
  64.5581691 105.6212871  47.2562246  63.7606203 105.5880415  48.5425713
  73.3073824 116.1067644  41.0866550  72.5303267 115.7678803  40.6421712
  73.9865305 116.1120267  40.4121515  68.1225853 111.2262381  40.9773157
  67.8175989 111.5408530  41.8283301  69.0756295 111.3043801  41.0200490
  66.5672285 117.3852604  42.6266111  66.0393647 116.6505364  42.3139349
  66.0659788 118.1627281  42.3806080  71.5465131 115.5801625  47.7433158
  70.8888806 116.2700886  47.8313286  72.3505530 115.9698057  48.0867144
  61.2991013 108.0472271  44.9872723  61.8734765 107.8247452  44.2545916
  61.8861995 108.1160965  45.7401324  70.3570590 113.9345998  45.7937099
  70.8702472 114.5675989  46.2958809  71.0071814 113.3347193  45.4280459
  61.6260600 110.0776732  39.0068608  60.7897912 110.4151418  39.3277883
  61.4865370 109.9425712  38.0695745  63.6013681 104.9213520  43.7147792
  62.9478093 104.6062537  43.0904407  63.5594155 104.2989260  44.4407615
  64.7124885 115.2032815  35.6301084  63.8051947 114.9722068  35.8292233
  65.2095917 114.4070434  35.8175066  67.6192964 123.9130322  38.5497771
  66.9454663 124.2162019  39.1582728  68.0058786 124.7159402  38.2003228
  66.8351421 111.4095453  48.0395440  65.9173982 111.6310400  47.8817128
  67.2511565 111.4841764  47.1807147  67.6186469 112.8086869  43.1698120
  68.3658288 113.3208266  42.8605242  67.8878058 112.4870922  44.0302514
  65.8913119 115.3045410  40.1525075  64.9824338 115.0204442  40.2497544
  65.9208203 115.7244488  39.2928381  71.1232386 118.9151999  43.9216242
  70.6694713 118.0742909  43.9781433  70.4926353 119.5513397  44.2591022
  70.0665306 109.8443985  45.1516910  69.3288063 109.3321371  45.4827152
  70.3192079 109.4044367  44.3400186  69.5665325 120.7528496  44.8566060
  69.8588300 121.3133553  44.1378426  70.0763946 121.0457057  45.6119219
  70.1676933 102.6220237  45.7458679  70.4735810 101.7617601  45.4584594
  70.8929538 103.2137857  45.5457673  56.4601289 113.0250924  44.1340277
  56.2625689 112.4320284  43.4091343  55.9047953 112.7203134  44.8516216
  64.4398013 112.9174030  46.2534870  64.4946623 111.9647867  46.1777346
  63.6289215 113.0733469  46.7376168  65.5889207 116.8454153  37.4913153
  65.1508637 116.1290012  37.0318790  66.3299647 117.0730268  36.9298244
  62.3790373 111.5351090  44.0125249  61.5658238 111.8345260  44.4190441
  62.8749367 111.1406779  44.7299731  64.5298951 121.5308847  45.9459513
  64.4875129 121.7569693  45.0168045  65.4461650 121.2972221  46.0945315
  67.9764584 111.9992914  52.8440143  68.3313972 112.2264387  53.7034608
  68.6236716 112.3311291  52.2217398  73.7062321 115.1211350  43.5489472
  73.5680220 115.3112946  42.6210661  73.3498540 115.8830733  44.0057523
  61.8704448 109.1069445  49.6286484  62.5103827 108.9658205  48.9309447
  61.0381978 108.8203959  49.2525086  73.7331701 117.1887877  48.5600743
  74.1668208 117.0963166  49.4083797  74.4463282 117.1645378  47.9220759
  62.6464751 118.4071876  45.7421476  63.4405350 117.9122196  45.5404051
  61.9356444 117.8789739  45.3789182  67.4659596 120.7889971  50.0933844
  67.5196618 121.3580908  50.8611560  66.5974377 120.9591856  49.7287881
  58.9547515 112.5514958  41.8181229  58.0245103 112.4899413  42.0351191
  59.0504987 112.0290910  41.0217870  58.8733064 109.0769770  44.4059471
  59.1339881 109.9915104  44.2968631  59.6950236 108.6094213  44.5556083
  60.3457989 110.4907528  51.5758295  61.0181043 110.2824890  50.9270944
  59.5187776 110.2929614  51.1363527  74.5947251 117.2311578  51.0933629
  74.7883141 118.1357388  51.3392904  74.4947869 116.7718997  51.9272214
  66.2483561 107.1169468  53.5923956  65.6011476 107.8159418  53.4988432
  67.0184577 107.5505612  53.9600204  69.6562359 117.3818321  56.6674509
  69.5047866 117.1528872  55.7504593  69.6467039 118.3388922  56.6805854
  66.4247696 114.9550233  51.6520776  67.3539756 115.1061393  51.4789743
  66.0038726 115.0434254  50.7969422  65.2236027 118.9800898  49.4219313
  65.0847113 118.6119682  50.2945251  64.4350624 119.4948537  49.2503271
  65.8184179 124.0809994  40.7644850  65.9935935 123.6098037  41.5790472
  65.1316967 124.7075760  40.9926111  66.7741243 118.3582501  46.8108151
  66.4391075 118.3183270  47.7065801  66.2745188 117.6927216  46.3378561
  60.7485487 113.7650131  52.3360732  60.6105284 113.0330369  52.9372271
  61.6590410 113.6759031  52.0544920  69.7100434 115.7038535  37.0845211
  69.0929605 114.9785363  36.9878263  69.2416923 116.4647895  36.7412285
  63.3767787 113.4770090  51.8244412  64.0867406 112.8363282  51.7831030
  63.3337095 113.7282985  52.7470593  71.3654566 120.4137443  54.7450991
  71.3067112 119.7296663  54.0781574  71.7674084 121.1556433  54.2931617
  62.0896721 110.4635308  53.6440051  61.5534078 110.0126046  54.2961648
  61.5013430 110.5981217  52.9010516  61.4998980 109.9223959  36.2066515
  60.6228446 109.8012760  35.8428762  61.9756733 109.1310037  35.9545404
  71.3671973 118.3777027  52.9764971  70.4798752 118.0402949  53.0991370
  71.9370524 117.6460058  53.2133736  53.0201120 114.7101119  46.3008022
  53.7072160 114.3962849  45.7129037  52.8649249 115.6142484  46.0275274
  57.8235842 109.5991315  50.7293046  57.7394031 108.9916985  49.9943456
  57.0018549 110.0900334  50.7302542  64.8973127 123.0378479  49.9426214
  64.8243298 123.8433451  50.4545518  64.4550520 123.2370445  49.1174235
  64.6862906 122.2750250  43.4529035  63.9030428 122.8171930  43.5467260
  65.3855651 122.7924229  43.8523277  67.9959556 108.0844879  46.0963241
  68.4928256 107.3314841  45.7764311  67.2246538 108.1209196  45.5306450
  75.8489314 113.7885245  47.7381532  75.8379190 114.6709960  47.3675465
  74.9806693 113.4356795  47.5436069  67.3571810 122.9365314  52.0984373
  68.0699782 123.5712778  52.0260274  66.8661839 123.0329180  51.2824374
  69.0789337 116.8416566  43.6701664  68.1445616 116.9618029  43.5006369
  69.2566005 115.9389033  43.4061674  64.5794525 110.2262262  45.8234925
  64.2092313 109.6733302  46.5115831  65.0753618 109.6220395  45.2709926
  72.4661888 112.6833885  44.2051698  72.9322341 113.5161877  44.1312001
  72.9169389 112.2178867  44.9096957  62.4083724 120.6859757  52.9189943
  63.1093183 121.3196240  53.0719338  61.9378839 121.0274489  52.1585583
  70.5338119 119.0277707  41.2037850  70.8097963 118.9134301  42.1131725
  69.6642618 118.6295192  41.1650024  70.4378551 105.0514472  48.2442600
  69.5241631 105.2818699  48.4124807  70.8671653 105.1352917  49.0956632
  70.2085010 113.2404364  50.7442494  69.5556460 113.4880272  50.0894947
  70.5865389 112.4268503  50.4104971  67.1692183 123.2764058  44.8470664
  67.3514578 122.4585714  45.3098416  67.9925169 123.4931750  44.4095554
  67.5034349 122.2032243  42.1085713  68.0322115 121.6924697  41.4955875
  67.7662569 121.8874773  42.9731246  66.2572583 113.9824175  57.2308531
  65.5813220 113.8818305  57.9010906  67.0800216 113.8263389  57.6944528
  58.0051442 120.2196112  49.8521046  58.5904878 119.4739800  49.9848950
  57.8076280 120.5300069  50.7357710  60.8590097 123.2547359  44.8683488
  60.1900472 123.7393487  44.3847529  60.7202967 123.5016580  45.7826867
  52.5969096 112.7901712  48.5725489  52.6353196 112.2565303  49.3662607
  52.0909389 112.2636918  47.9536466  64.9995365 125.2891103  51.4666147
  65.5513674 125.4522724  52.2315232  65.3401559 125.8795541  50.7946172
  59.9759859 107.6366253  52.0688032  60.0401185 108.4981084  51.6565429
  59.9126979 107.0240254  51.3360390  59.4512131 109.7089385  55.7161066
  60.0784170 109.3266463  56.3298590  58.5940050 109.4903587  56.0816758
  69.8506240 120.1152360  57.3214801  70.3946144 120.7282319  56.8269756
  69.2693085 120.6731939  57.8381814  56.2277674 111.5165814  41.6479421
  56.5231115 110.6076493  41.5946474  55.3265710 111.4953554  41.3260423
  68.1363753 123.2373078  48.4529829  68.0114892 122.4362818  47.9440774
  68.7942844 123.7319272  47.9643799  59.7571921 109.5921811  47.6306969
  59.0358507 110.2057779  47.4914443  60.5465177 110.1279576  47.5523615
  70.1998661 121.0382099  50.0809379  69.2528997 120.9187450  50.0087706
  70.5481434 120.1504597  50.1635641  62.5598235 106.9276237  53.9047621
  63.0832636 107.1738534  54.6673930  62.3410568 107.7596272  53.4850758
  57.9565516 109.1979912  41.7718746  57.6278222 108.3177291  41.5893852
  58.3104886 109.1427581  42.6595135  67.2045094 120.8334815  46.2813731
  67.0570057 119.9051522  46.4621301  68.0298588 120.8554905  45.7970807
  61.0707339 109.4852882  42.1394223  61.4103411 110.0138803  41.4172832
  61.5179459 109.8233288  42.9152790  70.8079216 121.6563373  47.3678604
  71.7325764 121.4506235  47.2303055  70.6394520 121.4079775  48.2767946
  63.7650780 107.8689933  51.5897292  63.4247600 107.0697746  51.9917971
  63.0589786 108.1691643  51.0174125  64.4167251 104.9539245  50.0424615
  65.2393321 104.4799723  49.9203505  64.6605315 105.7329729  50.5423301
  63.0575486 107.9827503  40.3387516  63.7783848 108.3608756  39.8351233
  62.4340790 108.7016380  40.4422494  67.2006609 108.6872652  41.2745849
  67.4170223 109.5697290  40.9734677  66.7200676 108.2958866  40.5451491
  61.9405830 111.6458366  47.8516593  61.7950411 111.9598669  48.7440875
  61.4631034 112.2643266  47.2987492  63.8002213 108.6360914  47.8997483
  63.7863782 107.7402007  47.5629781  64.5174641 108.6431577  48.5335769
  65.6528344 109.0698254  49.9450610  65.3946122 109.9915324  49.9434941
  65.1213384 108.6728688  50.6351074  70.5974532 122.1749041  42.7240696
  70.7711410 121.6095463  41.9714548  71.0903424 122.9749936  42.5420185
  56.4151492 114.1863710  50.7904254  55.8704960 114.9623518  50.9224529
  57.2930842 114.5334515  50.6323376  63.2039109 107.5175294  43.1685053
  63.3255020 106.5891940  43.3675940  62.9141151 107.5313980  42.2563368
  66.0730299 105.2030204  46.3051773  66.0951996 105.2669537  45.3503752
  66.4898358 104.3634713  46.4992279  76.4513924 114.9385464  44.3430995
  76.8945070 114.1892789  43.9450119  75.5740434 114.9295600  43.9604727
  71.5849705 121.4915805  39.8237594  72.2800610 122.1122498  40.0424908
  71.9272855 120.6411157  40.0989972  57.2017514 113.3133606  53.6834411
  56.4599250 113.4616242  54.2699042  56.8810258 113.5741872  52.8201161
  73.4841128 118.9415511  41.3524925  74.0092452 119.2802784  40.6274245
  73.3963481 118.0062526  41.1688059  65.1461177 122.8549585  53.4814801
  65.4548303 122.6098731  54.3537501  65.9436659 123.0596223  52.9933671
  65.1681789 125.0087494  45.7120178  64.7286779 124.5163873  46.4053034
  65.9189906 124.4660462  45.4712253  57.6474128 121.1999035  45.7144806
  58.4732148 120.9002807  45.3343449  57.2968180 120.4306657  46.1634594
  62.6155661 120.5525503  47.7842479  61.9935670 119.8896208  47.4844707
  63.2860528 120.5786635  47.1016127  55.8482733 119.1185361  46.6733739
  55.0114641 118.6907536  46.4917741  55.8206378 119.3117805  47.6104531
  62.6880188 109.0307291  57.3774985  62.7368344 109.9069414  56.9952755
  63.2302703 108.4884684  56.8046629  73.1735034 119.5748415  56.6576123
  72.3830578 119.5572553  56.1180622  72.9368389 120.1136708  57.4125159
  73.2932909 116.4240881  53.9708851  73.3430914 116.2590888  54.9124374
  73.1846833 115.5568140  53.5806732  62.1769168 119.1029427  41.2600940
  62.3257288 119.7864891  40.6067613  62.9835611 119.0834517  41.7750396
  70.5836672 112.4071809  55.2868158  71.4846534 112.2678274  54.9952156
  70.6584646 112.5726264  56.2266335  64.9179477 109.7838664  54.1321344
  64.0482786 110.0772230  53.8603933  65.1538957 110.3679109  54.8528608
  74.7951106 118.8437822  54.2150873  74.5035914 119.2067803  55.0514334
  74.1823237 118.1304831  54.0364205  75.9946788 116.4090702  46.7353443
  76.8293680 116.8480506  46.8991003  76.1305917 115.9329355  45.9161689
  73.0438294 113.9670437  52.6830931  73.5192416 114.1598083  51.8749782
  72.1203860 114.0229623  52.4374314  59.9321801 115.1294604  42.2662009
  59.6867843 114.2256934  42.4642219  60.1017715 115.1311755  41.3241487
  67.6218511 106.0018281  51.6486765  68.1400455 106.7379308  51.3233253
  67.2673644 106.3082274  52.4833524  59.2017448 110.8622962  39.7648170
  58.5086693 110.9367317  39.1088206  58.9569200 110.0983305  40.2869687
  67.8731105 102.4218563  47.1687661  68.1532859 101.7541752  47.7948088
  68.6581712 102.6147659  46.6562325  65.6764573 121.5977557  38.7312687
  65.1038541 122.2167744  38.2783159  66.2497367 122.1476919  39.2652609
  71.7439963 110.8436197  50.9159236  72.6957386 110.9434295  50.9371460
  71.5743414 110.0514466  51.4257321  69.7654343 107.9291780  51.1018637
  69.1704275 108.2096793  50.4065126  69.4804039 108.4185681  51.8735378
  68.8961833 121.8814707  39.8621270  69.8292506 121.8160269  40.0654145
  68.8085046 122.7170974  39.4035802  71.5249850 121.1980578  36.8225217
  71.4463481 120.8640441  37.7160975  72.3459517 121.6902345  36.8216690
  74.2228041 114.0642317  50.0301536  74.1904361 113.1258318  50.2161220
  74.8328665 114.1426354  49.2967361  66.0611372 112.9338370  36.0728740
  67.0070477 112.8044578  36.1417158  65.6825617 112.1953032  36.5498168
  74.3722530 110.8553360  50.0759819  73.8561578 110.0711817  49.8889748
  75.2562478 110.5272077  50.2406339  72.0333256 104.5994376  46.0355632
  71.8358078 104.2909464  46.9198964  72.6432962 105.3256015  46.1653562
  80.0404591 115.1258324  49.1707573  80.7707979 114.8643612  49.7315276
  79.4311536 114.3887046  49.2109641  78.1219888 113.2666186  49.7682024
  77.3953052 113.1322151  49.1598515  77.7067175 113.5743015  50.5738742
  65.9450064 116.9856116  57.5329397  66.8653074 117.1634715  57.7269443
  65.9099648 116.0412161  57.3809096  64.2454289 110.8588346  36.0083625
  63.3385744 110.5621459  36.0846339  64.5230270 110.5618164  35.1417911
  55.1632229 112.1794710  46.4582672  54.8435014 111.3260018  46.1657046
  54.6165658 112.3943288  47.2140639  58.9412137 114.8957151  50.1752178
  59.1598147 115.8274258  50.1940212  59.3537911 114.5365125  50.9606982
  65.8616355 105.4025236  42.1627866  65.0517083 105.0572321  42.5383112
  66.5500772 105.0932780  42.7515478  67.7906903 104.4803283  43.7852163
  68.3437942 104.8998736  44.4442186  68.0276989 103.5539031  43.8275119
  63.8140002 110.4690356  59.5654927  63.7136729 111.4184713  59.4967018
  63.5961544 110.1408595  58.6930997  63.0153074 107.7175281  36.1495604
  63.8772238 108.0430180  36.4091422  63.2003418 106.9306777  35.6368670
  55.0320489 115.7997621  48.4275793  54.3383961 115.3851574  47.9145748
  55.7793480 115.8418158  47.8309212  71.1685710 106.5903808  43.2930827
  70.5884379 107.2488612  42.9108880  70.9021643 105.7681152  42.8818245
  69.6189277 105.9908866  45.4952148  70.1189055 106.1025400  44.6866466
  70.2624884 105.6869918  46.1352956  63.6771272 113.8987495  58.3819989
  63.1938354 114.6987855  58.5883878  63.7632211 113.9095440  57.4287433
  56.9457232 115.7315875  46.3041808  56.9227920 115.8303562  45.3523691
  57.2557868 116.5781026  46.6258974  59.6044610 117.7892030  50.4188422
  60.5587863 117.7575972  50.3518354  59.4057133 117.3282654  51.2338648
  60.1943992 116.3593146  52.9859220  61.0136881 116.8537225  53.0094057
  60.4680800 115.4425114  52.9576788  69.9510588 108.7503898  42.3487176
  69.0636443 109.0353549  42.1307370  70.3664577 108.5897662  41.5014452
  73.3025124 108.7750419  46.0641515  74.0785514 109.2646872  46.3366132
  72.5773259 109.2008473  46.5213384  75.7397683 109.4878038  47.1215455
  76.3342174 109.2473774  46.4108764  75.8124267 108.7685169  47.7488992
  69.0953802 118.5148573  36.4435196  69.7989652 118.7198575  37.0592851
  68.3716450 119.0825335  36.7084279  69.9251612 114.2658434  42.5637466
  69.8686813 114.7226986  41.7245098  70.4779954 113.5049119  42.3860308
  73.7356418 110.0548166  43.3887585  73.4793352 109.6544802  44.2195793
  73.1109286 110.7691960  43.2637724  78.0468756 112.7944239  45.8958877
  77.4868314 112.8637429  46.6690439  77.4412259 112.6185224  45.1758373
  71.0040499 118.9531102  38.4933656  71.8386103 118.5212301  38.3111130
  70.8424842 118.7813116  39.4210550  70.6586391 115.4563215  39.8589995
  70.6035195 115.2907487  38.9178439  70.0332447 116.1639248  40.0152185
  55.4478906 110.6931280  53.6851417  56.0937770 110.1830234  54.1738642
  55.2396057 111.4299961  54.2594842  67.9732298 117.7612127  59.1843558
  68.8423458 117.9352780  58.8230193  67.4939050 118.5806544  59.0619287
  63.9682517 104.9571324  39.4375313  63.9561187 105.9013164  39.5943584
  64.8605939 104.7741470  39.1434775  62.1418479 124.8809228  50.8632991
  63.0445725 124.9132839  51.1799486  61.9155849 123.9509679  50.8779327
  63.8972081 123.6340215  47.5243070  62.9467712 123.6342076  47.4107442
  64.2004567 122.8872949  47.0079105  67.7834636 101.5514101  43.6921250
  67.0167032 100.9972588  43.8377932  68.1945341 101.6235970  44.5535402
  59.7876397 107.8398897  57.7826431  60.6507859 107.4835702  57.9929756
  59.2141808 107.5012792  58.4701836  79.6324774 129.4700753  48.5888832
  80.2703184 129.3507501  47.8852172  79.5145617 130.4181597  48.6476785
  76.4414480 129.4228181  48.5250357  76.1032992 129.3069246  47.6370892
  77.3104249 129.0219346  48.5051363  74.1422760 128.1916429  37.8567297
  74.3948281 127.6697950  37.0950760  73.2047319 128.0282574  37.9593981
  79.1866043 127.1952207  45.6642040  79.9729132 126.7771630  45.3132457
  79.4504747 128.0998299  45.8323689  84.5874470 127.1327440  46.5675019
  85.3199642 126.5626657  46.8012848  83.8313825 126.7449041  47.0081524
  76.2050590 129.5554682  43.7638361  75.8408797 129.0285303  44.4751283
  77.0617705 129.1653151  43.5904847  82.1099890 120.8449014  51.0269628
  81.7783215 121.7144425  50.8030842  81.5145504 120.5285298  51.7063658
  75.8456076 124.5844581  38.7599710  76.0130479 125.4524818  39.1270181
  75.6553246 124.7471863  37.8360999  82.0028553 125.5644101  48.1062978
  81.0945431 125.4959509  47.8121739  81.9516149 126.0416045  48.9344803
  75.8245297 127.0402239  39.7446377  75.7044923 127.4859290  40.5831857
  75.1297886 127.3887557  39.1859915  76.0769419 126.9833746  56.0497875
  75.3002753 127.5427666  56.0400739  76.7159982 127.4690529  56.5712745
  83.8690200 123.7660539  49.8840851  83.2264580 124.0593072  49.2380646
  83.3645128 123.6513459  50.6894048  81.5230364 127.5123712  40.5726711
  82.4348220 127.7451099  40.3974408  81.0140011 128.0960756  40.0101789
  76.1602201 126.8720947  51.5821560  77.0063396 127.2960360  51.7256209
  76.1000839 126.2154571  52.2760123  79.3101647 124.5325315  53.2402734
  79.0662578 125.2867376  52.7037010  79.5861577 124.9110663  54.0749981
  78.8666338 123.6881748  48.8216572  78.0050817 123.9863002  49.1133309
  78.8928773 123.9052147  47.8897604  74.6196794 128.3547091  42.0379942
  75.3220837 128.8068135  42.5053869  74.2877422 127.7130910  42.6659836
  73.0677155 126.9458848  56.4131152  72.4375816 127.6275129  56.6466549
  72.9613243 126.8341929  55.4684290  70.3136873 126.9775223  44.2980553
  69.5168036 127.0893917  44.8164048  70.0862465 127.3161875  43.4321443
  72.3457898 121.2479614  58.7756403  71.9524844 120.6945812  59.4504047
  73.1624038 121.5590192  59.1662920  75.2625859 122.6637493  56.3676659
  76.0035572 123.2644646  56.2881122  75.4943782 121.9215130  55.8094702
  79.2083022 118.6918596  50.6440941  78.8647291 119.5820237  50.5680052
  79.5761985 118.5020253  49.7810526  79.1733305 128.6827207  39.1513376
  78.6579928 129.4531811  39.3901764  78.9010613 128.0092343  39.7746438
  76.7580416 123.5276907  44.2098615  75.9022012 123.1383758  44.0304253
  77.1707367 123.6068868  43.3498400  78.2879562 121.0623251  48.6090174
  77.7844358 121.0253386  47.7957980  78.5810169 121.9715993  48.6686831
  74.5322448 121.1461980  47.6156356  75.3975445 120.9504789  47.2562246
  74.5999957 120.9172332  48.5425713  78.9619608 126.5554299  40.9773157
  78.6569743 126.8700448  41.8283301  79.9150050 126.6335719  41.0200490
  72.1384767 123.3764188  44.9872723  72.7128519 123.1539370  44.2545916
  72.7255750 123.4452883  45.7401324  81.1964345 129.2637915  45.7937099
  81.7096226 129.8967907  46.2958809  81.8465568 128.6639111  45.4280459
  72.4654354 125.4068649  39.0068608  71.6291667 125.7443336  39.3277883
  72.3259124 125.2717629  38.0695745  74.4407435 120.2505437  43.7147792
  73.7871847 119.9354454  43.0904407  74.3987909 119.6281178  44.4407615
  77.6745175 126.7387371  48.0395440  76.7567737 126.9602318  47.8817128
  78.0905319 126.8133681  47.1807147  78.4580223 128.1378786  43.1698120
  79.2052042 128.6500184  42.8605242  78.7271813 127.8162839  44.0302514
  80.9059060 125.1735903  45.1516910  80.1681817 124.6613289  45.4827152
  81.1585834 124.7336284  44.3400186  81.0070688 117.9512155  45.7458679
  81.3129564 117.0909518  45.4584594  81.7323292 118.5429775  45.5457673
  75.2791767 128.2465948  46.2534870  75.3340377 127.2939784  46.1777346
  74.4682969 128.4025387  46.7376168  73.2184127 126.8643008  44.0125249
  72.4051993 127.1637178  44.4190441  73.7143121 126.4698696  44.7299731
  78.8158339 127.3284832  52.8440143  79.1707727 127.5556305  53.7034608
  79.4630470 127.6603209  52.2217398  72.7098202 124.4361363  49.6286484
  73.3497581 124.2950122  48.9309447  71.8775733 124.1495876  49.2525086
  69.7126818 124.4061688  44.4059471  69.9733636 125.3207021  44.2968631
  70.5343991 123.9386131  44.5556083  71.1851744 125.8199445  51.5758295
  71.8574797 125.6116807  50.9270944  70.3581530 125.6221531  51.1363527
  77.0877316 122.4461386  53.5923956  76.4405231 123.1451336  53.4988432
  77.8578331 122.8797530  53.9600204  74.2161542 128.8062008  51.8244412
  74.9261160 128.1655200  51.7831030  74.1730850 129.0574902  52.7470593
  72.9290476 125.7927225  53.6440051  72.3927833 125.3417964  54.2961648
  72.3407184 125.9273134  52.9010516  72.3392735 125.2515877  36.2066515
  71.4622201 125.1304678  35.8428762  72.8150488 124.4601955  35.9545404
  68.6629597 124.9283233  50.7293046  68.5787786 124.3208903  49.9943456
  67.8412303 125.4192251  50.7302542  78.8353311 123.4136797  46.0963241
  79.3322010 122.6606759  45.7764311  78.0640292 123.4501113  45.5306450
  75.4188280 125.5554180  45.8234925  75.0486067 125.0025220  46.5115831
  75.9147372 124.9512313  45.2709926  83.3055643 128.0125803  44.2051698
  83.7716095 128.8453795  44.1312001  83.7563143 127.5470785  44.9096957
  81.2772306 120.3806390  48.2442600  80.3635385 120.6110617  48.4124807
  81.7065407 120.4644834  49.0956632  81.0478764 128.5696282  50.7442494
  80.3950214 128.8172190  50.0894947  81.4259144 127.7560420  50.4104971
  77.0966337 129.3116093  57.2308531  76.4206974 129.2110223  57.9010906
  77.9193971 129.1555307  57.6944528  70.8153613 122.9658170  52.0688032
  70.8794940 123.8273001  51.6565429  70.7520733 122.3532172  51.3360390
  70.2905886 125.0381303  55.7161066  70.9177925 124.6558380  56.3298590
  69.4333805 124.8195505  56.0816758  70.5965675 124.9213729  47.6306969
  69.8752261 125.5349696  47.4914443  71.3858931 125.4571493  47.5523615
  73.3991989 122.2568155  53.9047621  73.9226391 122.5030452  54.6673930
  73.1804322 123.0888190  53.4850758  68.7959270 124.5271830  41.7718746
  68.4671976 123.6469209  41.5893852  69.1498641 124.4719498  42.6595135
  71.9101093 124.8144800  42.1394223  72.2497166 125.3430721  41.4172832
  72.3573214 125.1525206  42.9152790  74.6044534 123.1981850  51.5897292
  74.2641354 122.3989663  51.9917971  73.8983540 123.4983561  51.0174125
  75.2561006 120.2831163  50.0424615  76.0787075 119.8091641  49.9203505
  75.4999069 121.0621646  50.5423301  73.8969240 123.3119421  40.3387516
  74.6177603 123.6900674  39.8351233  73.2734544 124.0308298  40.4422494
  78.0400363 124.0164570  41.2745849  78.2563978 124.8989208  40.9734677
  77.5594430 123.6250784  40.5451491  72.7799585 126.9750283  47.8516593
  72.6344165 127.2890586  48.7440875  72.3024788 127.5935184  47.2987492
  74.6395968 123.9652831  47.8997483  74.6257536 123.0693925  47.5629781
  75.3568396 123.9723495  48.5335769  76.4922098 124.3990172  49.9450610
  76.2339876 125.3207242  49.9434941  75.9607139 124.0020606  50.6351074
  74.0432863 122.8467212  43.1685053  74.1648775 121.9183858  43.3675940
  73.7534906 122.8605898  42.2563368  76.9124054 120.5322122  46.3051773
  76.9345751 120.5961455  45.3503752  77.3292113 119.6926631  46.4992279
  73.5273943 124.3599209  57.3774985  73.5762098 125.2361332  56.9952755
  74.0696457 123.8176602  56.8046629  81.4230426 127.7363727  55.2868158
  82.3240289 127.5970191  54.9952156  81.4978401 127.9018181  56.2266335
  75.7573231 125.1130581  54.1321344  74.8876541 125.4064147  53.8603933
  75.9932712 125.6971026  54.8528608  78.4612265 121.3310198  51.6486765
  78.9794209 122.0671225  51.3233253  78.1067398 121.6374192  52.4833524
  70.0411203 126.1914879  39.7648170  69.3480448 126.2659234  39.1088206
  69.7962955 125.4275223  40.2869687  78.7124859 117.7510481  47.1687661
  78.9926613 117.0833670  47.7948088  79.4975466 117.9439576  46.6562325
  82.5833718 126.1728115  50.9159236  83.5351141 126.2726212  50.9371460
  82.4137168 125.3806383  51.4257321  80.6048097 123.2583698  51.1018637
  80.0098029 123.5388711  50.4065126  80.3197794 123.7477599  51.8735378
  76.9005126 128.2630287  36.0728740  77.8464231 128.1336496  36.1417158
  76.5219371 127.5244949  36.5498168  85.2116284 126.1845278  50.0759819
  84.6955333 125.4003735  49.8889748  86.0956233 125.8563995  50.2406339
  82.8727011 119.9286294  46.0355632  82.6751832 119.6201382  46.9198964
  83.4826717 120.6547932  46.1653562  75.0848044 126.1880264  36.0083625
  74.1779499 125.8913377  36.0846339  75.3624025 125.8910082  35.1417911
  76.7010109 120.7317154  42.1627866  75.8910838 120.3864239  42.5383112
  77.3894526 120.4224697  42.7515478  78.6300658 119.8095200  43.7852163
  79.1831696 120.2290654  44.4442186  78.8670744 118.8830948  43.8275119
  74.6533757 125.7982274  59.5654927  74.5530484 126.7476631  59.4967018
  74.4355299 125.4700513  58.6930997  73.8546828 123.0467199  36.1495604
  74.7165992 123.3722097  36.4091422  74.0397172 122.2598695  35.6368670
  82.0079465 121.9195726  43.2930827  81.4278134 122.5780530  42.9108880
  81.7415397 121.0973070  42.8818245  80.4583031 121.3200783  45.4952148
  80.9582809 121.4317318  44.6866466  81.1018639 121.0161836  46.1352956
  80.7904343 124.0795816  42.3487176  79.9030198 124.3645467  42.1307370
  81.2058332 123.9189579  41.5014452  84.1418879 124.1042337  46.0641515
  84.9179269 124.5938789  46.3366132  83.4167013 124.5300391  46.5213384
  86.5791437 124.8169956  47.1215455  87.1735928 124.5765692  46.4108764
  86.6518021 124.0977087  47.7488992  80.7645366 129.5950352  42.5637466
  80.7080568 130.0518903  41.7245098  81.3173709 128.8341036  42.3860308
  84.5750172 125.3840084  43.3887585  84.3187107 124.9836719  44.2195793
  83.9503040 126.0983878  43.2637724  74.8076271 120.2863242  39.4375313
  74.7954941 121.2305082  39.5943584  75.6999693 120.1033388  39.1434775
  78.6228391 116.8806019  43.6921250  77.8560786 116.3264505  43.8377932
  79.0339096 116.9527888  44.5535402  70.6270152 123.1690815  57.7826431
  71.4901613 122.8127619  57.9929756  70.0535562 122.8304709  58.4701836
  14.5962248  14.5011370  35.3134139  15.2340658  14.3818117  34.6097479
  14.4783091  15.4492214  35.3722091  11.4051955  14.4538798  35.2495664
  11.0670466  14.3379863  34.3616199  12.2741723  14.0529963  35.2296670
  11.8871738  15.6073650  41.2081869  11.8760379  15.2126448  40.3362373
  12.0492377  14.8739722  41.8015641   8.6078999  18.3910761  40.1561053
   8.3168865  19.2956392  40.0407720   9.2435983  18.4327289  40.8705123
   9.5335206  15.7687610  36.7462413  10.1298778  15.5443632  36.0319376
   9.5910177  15.0272355  37.3487861  19.5511944  12.1638057  33.2920326
  20.2837116  11.5937274  33.5258155  18.7951300  11.7759657  33.7326831
  13.5668884  18.0772177  37.1510847  13.2669607  18.9797216  37.0426654
  13.2219943  17.8104360  38.0032000  16.9666028  10.5954717  34.8308284
  16.0582905  10.5270126  34.5367045  16.9153624  11.0726662  35.6590110
   8.5489664  24.8416497  30.1181815   8.4713693  25.7924322  30.1970295
   7.9451307  24.4962370  30.7756741  11.0406894  12.0144363  42.7743181
  10.2640228  12.5738283  42.7646046  11.6797457  12.5001146  43.2958052
  18.8327674   8.7971156  36.6086158  18.1902054   9.0903689  35.9625953
  18.3282603   8.6824076  37.4139355   9.2953266  14.8229816  42.3361148
  10.0367950  15.3614860  42.0595972   8.5890251  15.4496105  42.4932700
  14.7708605  16.9658957  40.9333310  15.1791962  16.5241367  40.1887942
  14.0485867  16.3911584  41.1867503  11.1239676  11.9031563  38.3066867
  11.9700871  12.3270977  38.4501516  11.0638313  11.2465188  39.0005430
  15.0937420  17.5260147  34.6885599  14.4646283  17.6905861  33.9861667
  14.7063082  17.9401757  35.4596563  18.9726652  18.4614585  32.0429963
  18.2877690  18.8413486  31.4926996  19.0570501  19.0709912  32.7761910
  14.2739121   9.5635932  39.9648041  14.0300053  10.3177992  39.4282316
  14.5499051   9.9421279  40.7995288  16.2277584  16.1074544  38.6425306
  16.4394479  16.7506304  37.9659687  16.1807332  15.2736861  38.1747236
   7.5389463  16.8106037  34.8915447   8.1090820  17.2393305  34.2532932
   8.1297575  16.5288621  35.5899633  17.3423412  18.9846499  36.8147663
  18.1640855  18.5826687  36.5330345  17.3385814  18.8814734  37.7663779
  11.1080015  18.5330543  38.9708374  11.1724448  18.9950950  39.8066546
  10.3990939  17.9027908  39.0990684  25.4329405  15.3285248  33.1632635
  24.6793113  14.7592646  33.0076639  25.5676946  15.2947912  34.1103270
  12.4496509  20.8222217  42.9687696  12.0060363  20.0358595  42.6508601
  13.1113723  21.0101367  42.3031587   7.2083630  22.3518018  37.4948375
   7.7591055  22.2235082  36.7225369   6.3695106  22.6512907  37.1443268
  14.5477747  21.1025017  40.9969098  14.5296222  21.9233898  40.5049367
  15.4697667  20.9779092  41.2219239  11.0050801  18.6169146  41.8392606
  11.5379138  17.8557434  41.6091914  10.4764882  18.3242798  42.5816761
  17.3496360  15.9404159  34.4678464  16.6920034  16.6303421  34.5558593
  18.1536759  16.3300591  34.8112451  16.1601819  14.2948532  32.5182406
  16.6733701  14.9278524  33.0204116  16.8103043  13.6949727  32.1525766
  16.9263615  19.2754533  30.6461549  16.4725942  18.4345443  30.7026739
  16.2957582  19.9115932  30.9836329  15.3696554  21.1131030  31.5811367
  15.6619529  21.6736087  30.8623733  15.8795175  21.4059591  32.3364526
  10.3330179  21.8911381  32.6704820  10.2906358  22.1172227  31.7413352
  11.2492878  21.6574756  32.8190621  13.7795813  12.3595449  39.5685449
  14.1345201  12.5866922  40.4279915  14.4267944  12.6913825  38.9462705
  19.5362930  17.5490411  35.2846050  19.9699436  17.4565701  36.1329104
  20.2494511  17.5247912  34.6466066  13.2690825  21.1492506  36.8179150
  13.3227847  21.7183442  37.5856866  12.4005606  21.3194391  36.4533188
  20.3978479  17.5914112  37.8178935  20.5914369  18.4959923  38.0638210
  20.2979098  17.1321531  38.6517520  15.4593588  17.7420855  43.3919816
  15.3079094  17.5131407  42.4749900  15.4498268  18.6991456  43.4051161
  12.2278924  15.3152768  38.3766082  13.1570984  15.4663927  38.2035050
  11.8069954  15.4036788  37.5214729  11.0267256  19.3403432  36.1464620
  10.8878342  18.9722216  37.0190558  10.2381852  19.8551071  35.9748578
  12.5772471  18.7185035  33.5353458  12.2422304  18.6785805  34.4311108
  12.0776417  18.0529751  33.0623868   9.1799016  13.8372624  38.5489718
   9.8898635  13.1965816  38.5076337   9.1368324  14.0885519  39.4715899
  17.1685795  20.7739977  41.4696298  17.1098341  20.0899198  40.8026881
  17.5705313  21.5158967  41.0176924   6.1876493  27.5901891  34.2630017
   6.4273092  28.2220415  34.9409035   5.3445690  27.2389931  34.5495376
  17.1703202  18.7379561  39.7010277  16.2829981  18.4005483  39.8236676
  17.7401753  18.0062593  39.9379043  10.7004355  23.3981014  36.6671521
  10.6274527  24.2035985  37.1790825  10.2581748  23.5972980  35.8419542
  10.4894135  22.6352784  30.1774342   9.7061657  23.1774464  30.2712567
  11.1886880  23.1526763  30.5768583  21.6520543  14.1487779  34.4626839
  21.6410419  15.0312494  34.0920772  20.7837922  13.7959330  34.2681376
  13.1603039  23.2967848  38.8229679  13.8731011  23.9315313  38.7505581
  12.6693068  23.3931714  38.0069681   8.2114952  21.0462291  39.6435250
   8.9124412  21.6798774  39.7964644   7.7410067  21.3877023  38.8830889
  16.0116238  13.6006899  37.4687800  15.3587689  13.8482806  36.8140253
  16.3896618  12.7871037  37.1350278  12.9723412  23.6366592  31.5715971
  13.1545807  22.8188248  32.0343723  13.7956398  23.8534284  31.1340861
  13.3065578  22.5634777  28.8331019  13.8353344  22.0527232  28.2201181
  13.5693797  22.2477307  29.6976552  12.0603811  14.3426710  43.9553838
  11.3844448  14.2420839  44.6256213  12.8831445  14.1865923  44.4189835
   3.8082670  20.5798646  36.5766353   4.3936107  19.8342334  36.7094257
   3.6107509  20.8902603  37.4603017   6.6621326  23.6149894  31.5928795
   5.9931701  24.0996021  31.1092835   6.5234195  23.8619114  32.5072174
  10.8026594  25.6493637  38.1911453  11.3544902  25.8125259  38.9560539
  11.1432788  26.2398075  37.5191478  15.6537469  20.4754895  44.0460108
  16.1977373  21.0884853  43.5515063  15.0724313  21.0334473  44.5627121
  13.9394982  23.5975613  35.1775136  13.8146121  22.7965353  34.6686081
  14.5974073  24.0921806  34.6889106  16.0029890  21.3984633  36.8054686
  15.0560225  21.2789984  36.7333012  16.3512663  20.5107131  36.8880947
  13.0076323  21.1937349  33.0059038  12.8601286  20.2654056  33.1866608
  13.8329817  21.2157440  32.5216113  16.6110445  22.0165908  34.0923911
  17.5356993  21.8108769  33.9548362  16.4425748  21.7682309  35.0013252
  16.4005761  22.5351575  29.4486002  16.5742639  21.9697998  28.6959855
  16.8934653  23.3352470  29.2665492  22.2545152  15.2987998  31.0676302
  22.6976299  14.5495323  30.6695425  21.3771663  15.2898134  30.6850034
  10.9492406  23.2152119  40.2060108  11.2579532  22.9701266  41.0782807
  11.7467888  23.4198757  39.7178978  10.9713018  25.3690028  32.4365484
  10.5318008  24.8766407  33.1298341  11.7221135  24.8262996  32.1957560
   8.4186890  20.9128037  34.5087786   7.7966899  20.2498742  34.2090014
   9.0891757  20.9389169  33.8261434  18.9766263  19.9350949  43.3821429
  18.1861807  19.9175088  42.8425929  18.7399618  20.4739242  44.1370466
  19.0964138  16.7843415  40.6954158  19.1462143  16.6193423  41.6369680
  18.9878061  15.9170674  40.3052038  16.3867900  12.7674343  42.0113464
  17.2877763  12.6280808  41.7197462  16.4615875  12.9328798  42.9511642
  20.5982335  19.2040357  40.9396179  20.3067143  19.5670337  41.7759640
  19.9854466  18.4907365  40.7609511  21.7978017  16.7693236  33.4598749
  22.6324909  17.2083040  33.6236310  21.9337146  16.2931890  32.6406995
  18.8469523  14.3272971  39.4076237  19.3223645  14.5200618  38.5995089
  17.9235088  14.3832157  39.1619621  17.5471192  11.2038731  37.6404543
  18.4988615  11.3036829  37.6616767  17.3774643  10.4117000  38.1502627
  15.5685572   8.2894315  37.8263944  14.9735504   8.5699327  37.1310432
  15.2835268   8.7788215  38.5980685  20.0259270  14.4244851  36.7546842
  19.9935590  13.4860852  36.9406526  20.6359894  14.5028888  36.0212667
  20.1753758  11.2155894  36.8005126  19.6592807  10.4314351  36.6135055
  21.0593707  10.8874611  36.9651645  25.8435820  15.4860858  35.8952879
  26.5739208  15.2246146  36.4560583  25.2342765  14.7489580  35.9354947
  23.9251117  13.6268720  36.4927330  23.1984280  13.4924685  35.8843822
  23.5098404  13.9345549  37.2984049  11.7481293  17.3458650  44.2574704
  12.6684303  17.5237249  44.4514750  11.7130876  16.4014696  44.1054403
   4.7443366  15.2559685  36.8997485   4.9629376  16.1876793  36.9185518
   5.1569140  14.8967659  37.6852289   9.4802501  14.2590029  45.1065295
   8.9969583  15.0590390  45.3129184   9.5663440  14.2697974  44.1532739
   5.4075839  18.1494564  37.1433729   6.3619092  18.1178506  37.0763661
   5.2088362  17.6885188  37.9583955   5.9975221  16.7195680  39.7104527
   6.8168110  17.2139759  39.7339364   6.2712029  15.8027648  39.6822094
  21.5428912   9.8480573  33.8460762  22.1373403   9.6076309  33.1354070
  21.6155495   9.1287703  34.4734298   3.7626067  23.6914184  34.1603927
   3.6280535  22.9314584  33.5941925   3.3458130  24.4155083  33.6932716
  23.8499985  13.1546774  32.6204183  23.2899543  13.2239963  33.3935745
  23.2443488  12.9787758  31.9003680   6.9195193  24.5883501  34.3722370
   6.8027577  25.5328933  34.2701060   6.0987640  24.2857062  34.7608169
  13.7763527  18.1214662  45.9088864  14.6454687  18.2955314  45.5475499
  13.2970279  18.9409078  45.7864594   7.9449707  25.2411763  37.5878298
   8.8476954  25.2735373  37.9044793   7.7187078  24.3112213  37.6024634
   9.7003309  23.9942749  34.2488377   8.7498940  23.9944611  34.1352749
  10.0035796  23.2475484  33.7324411  25.4356003  29.8303287  35.3134139
  26.0734413  29.7110035  34.6097479  25.3176846  30.7784131  35.3722091
  22.2445709  29.7830716  35.2495664  21.9064221  29.6671780  34.3616199
  23.1135477  29.3821881  35.2296670  18.1032525  31.6366192  31.2392555
  17.5397390  31.5456129  30.4708842  17.9884920  30.8166096  31.7195047
  22.7265492  30.9365567  41.2081869  22.7154133  30.5418366  40.3362373
  22.8886132  30.2031640  41.8015641  15.6496957  33.1317384  34.0776775
  16.4418249  32.7908208  33.6623074  15.8893607  33.2412359  34.9978928
  23.6832084  35.3037160  26.5507020  23.0320063  35.8891240  26.1641033
  24.4776446  35.8343355  26.6102057  17.6087711  32.3926297  26.9494154
  18.3818587  31.8455284  26.8107030  17.9613110  33.2570546  27.1608615
  19.4472753  33.7202679  40.1561053  19.1562619  34.6248310  40.0407720
  20.0829738  33.7619207  40.8705123  20.3728960  31.0979528  36.7462413
  20.9692532  30.8735550  36.0319376  20.4303932  30.3564273  37.3487861
  19.9453989  28.5518963  24.5812604  20.1979509  28.0300484  23.8196067
  19.0078548  28.3885108  24.6839287  24.9897271  27.5554741  32.3887347
  25.7760361  27.1374164  32.0377764  25.2535976  28.4600833  32.5568995
  25.1607349  32.9927592  27.0876004  24.5253182  33.0662218  27.7996908
  24.8304755  33.5821190  26.4095083  30.3905699  27.4929975  33.2920326
  31.1230871  26.9229191  33.5258155  29.6345054  27.1051575  33.7326831
  19.6650277  30.4547069  26.7836979  19.5486535  29.7791972  27.4518063
  19.7752537  29.9679443  25.9669132  22.0081818  29.9157216  30.4883668
  21.6440026  29.3887837  31.1996589  22.8648934  29.5255685  30.3150153
  27.9131119  21.2051549  37.7514934  27.5814444  22.0746960  37.5276149
  27.3176732  20.8887833  38.4308965  21.6487305  24.9447116  25.4845017
  21.8161708  25.8127352  25.8515488  21.4584474  25.1074397  24.5606306
  24.4062638  33.4064095  37.1510847  24.1063362  34.3089133  37.0426654
  24.0613698  33.1396278  38.0032000  17.8575120  29.8577891  33.1847551
  16.9325616  29.7254106  33.3925243  18.1059533  30.6372111  33.6817494
  27.8059782  25.9246635  34.8308284  26.8976660  25.8562043  34.5367045
  27.7547378  26.4018580  35.6590110  21.6276526  27.4004773  26.4691683
  21.5076151  27.8461824  27.3077164  20.9329115  27.7490091  25.9105221
  15.2183931  29.5011165  34.0191340  15.3476312  29.7545644  34.9330752
  14.5381382  30.0938873  33.6995995  19.3883418  40.1708415  30.1181815
  19.3107448  41.1216240  30.1970295  18.7845062  39.8254287  30.7756741
  21.8800648  27.3436280  42.7743181  21.1033982  27.9030201  42.7646046
  22.5191211  27.8293063  43.2958052  29.6721429  24.1263073  36.6086158
  29.0295809  24.4195606  35.9625953  29.1676357  24.0115994  37.4139355
  27.3261592  27.8726246  27.2972017  28.2379448  28.1053633  27.1219715
  26.8171239  28.4563291  26.7347096  20.1347020  30.1521734  42.3361148
  20.8761705  30.6906778  42.0595972  19.4284006  30.7788022  42.4932700
  25.6102360  32.2950874  40.9333310  26.0185716  31.8533285  40.1887942
  24.8879621  31.7203502  41.1867503  21.9633430  27.2323481  38.3066867
  22.8094625  27.6562895  38.4501516  21.9032068  26.5757105  39.0005430
  25.9331175  32.8552065  34.6885599  25.3040037  33.0197779  33.9861667
  25.5456837  33.2693674  35.4596563  29.8120407  33.7906503  32.0429963
  29.1271445  34.1705404  31.4926996  29.8964256  34.4001829  32.7761910
  25.1132875  24.8927849  39.9648041  24.8693807  25.6469910  39.4282316
  25.3892806  25.2713197  40.7995288  27.0671338  31.4366462  38.6425306
  27.2788233  32.0798222  37.9659687  27.0201086  30.6028778  38.1747236
  24.6697567  24.0484282  35.5461878  23.8082046  24.3465536  35.8378616
  24.6960002  24.2654681  34.6142911  21.4859137  32.5926473  31.9535684
  21.9497482  32.8714176  31.1640306  21.2215935  31.6909917  31.7708775
  18.3783218  32.1397954  34.8915447  18.9484575  32.5685223  34.2532932
  18.9691329  31.8580539  35.5899633  20.4228023  28.7149625  28.7625249
  21.1252066  29.1670669  29.2299175  20.0908651  28.0733444  29.3905142
  18.8708384  27.3061382  43.1376458  18.2407045  27.9877663  43.3711855
  18.7644472  27.1944464  42.1929597  14.1653357  26.9733178  34.0642383
  13.3752411  27.2290706  33.5882493  14.6564604  27.7881516  34.1694423
  28.1817166  34.3138417  36.8147663  29.0034610  33.9118604  36.5330345
  28.1779569  34.2106651  37.7663779  16.1168102  27.3377757  31.0225859
  15.3199265  27.4496451  31.5409355  15.8893694  27.6764409  30.1566750
  21.9473770  33.8622460  38.9708374  22.0118202  34.3242868  39.8066546
  21.2384693  33.2319825  39.0990684  12.4491060  27.2263668  36.4957373
  12.6999098  28.1110678  36.7614949  12.9850608  27.0468270  35.7232465
  36.2723159  30.6577166  33.1632635  35.5186868  30.0884564  33.0076639
  36.4070700  30.6239830  34.1103270  21.6621787  35.5290568  28.8387354
  21.5267462  36.3742104  29.2672202  22.2031600  35.7309846  28.0753288
  18.1489127  21.6082148  45.5001710  17.7556072  21.0548346  46.1749354
  18.9655267  21.9192726  45.8908227  15.1151185  33.0466006  29.4115279
  15.6275705  33.8409256  29.5620844  15.7673897  32.3492296  29.3448881
  16.9246069  36.1631762  31.4938033  17.1012698  37.0849727  31.3059016
  17.7202903  35.8490181  31.9232412  21.0657088  23.0240027  43.0921966
  21.8066801  23.6247180  43.0126429  21.2975011  22.2817665  42.5340009
  16.2098426  28.2096394  41.3700196  16.0951941  27.3081651  41.6707295
  15.3542944  28.4560091  41.0185012  23.2890264  36.1514134  42.9687696
  22.8454118  35.3650513  42.6508601  23.9507477  36.3393285  42.3031587
  18.0477385  37.6809936  37.4948375  18.5984810  37.5526999  36.7225369
  17.2088861  37.9804825  37.1443268  25.3871502  36.4316934  40.9969098
  25.3689977  37.2525815  40.5049367  26.3091422  36.3071010  41.2219239
  21.8444556  33.9461064  41.8392606  22.3772893  33.1849352  41.6091914
  21.3158637  33.6534716  42.5816761  25.0114251  19.0521130  37.3686248
  24.6678520  19.9422771  37.2925358  25.3793213  18.8622787  36.5055833
  13.0800101  31.3754660  30.1874850  13.9175323  31.7851669  29.9708558
  13.2578369  30.4354102  30.1575044  24.9764533  29.0429741  25.8758683
  24.4611157  29.8134346  26.1147070  24.7041842  28.3694877  26.4991744
  22.5611645  23.8879442  30.9343921  21.7053241  23.4986292  30.7549560
  22.9738596  23.9671402  30.0743707  24.0910791  21.4225785  35.3335481
  23.5875587  21.3855920  34.5203286  24.3841398  22.3318528  35.3932138
  20.3353677  21.5064515  34.3401663  21.2006674  21.3107323  33.9807552
  20.4031186  21.2774866  35.2671020  29.9498808  31.7962096  27.8111856
  29.1728250  31.4573255  27.3667018  30.6290289  31.8014719  27.1366821
  24.7650837  26.9156833  27.7018464  24.4600972  27.2302982  28.5528607
  25.7181279  26.9938253  27.7445797  23.2097268  33.0747056  29.3511418
  22.6818630  32.3399816  29.0384655  22.7084771  33.8521733  29.1051386
  28.1890115  31.2696077  34.4678464  27.5313789  31.9595338  34.5558593
  28.9930514  31.6592509  34.8112451  17.9415996  23.7366723  31.7118030
  18.5159748  23.5141904  30.9791223  18.5286979  23.8055417  32.4646631
  26.9995573  29.6240449  32.5182406  27.5127455  30.2570441  33.0204116
  27.6496797  29.0241645  32.1525766  18.2685583  25.7671184  25.7313915
  17.4322895  26.1045870  26.0523190  18.1290353  25.6320163  24.7941052
  20.2438664  20.6107971  30.4393099  19.5903076  20.2956989  29.8149714
  20.2019138  19.9883712  31.1652922  21.3549869  30.8927267  22.3546391
  20.4476930  30.6616520  22.5537540  21.8520901  30.0964886  22.5420373
  24.2617948  39.6024774  25.2743077  23.5879646  39.9056471  25.8828035
  24.6483770  40.4053854  24.9248534  23.4776404  27.0989905  34.7640747
  22.5598966  27.3204852  34.6062435  23.8936548  27.1736216  33.9052454
  24.2611452  28.4981321  29.8943427  25.0083271  29.0102718  29.5850549
  24.5303041  28.1765373  30.7547820  22.5338102  30.9939861  26.8770381
  21.6249321  30.7098894  26.9742851  22.5633186  31.4138940  26.0173688
  27.7657370  34.6046451  30.6461549  27.3119697  33.7637361  30.7026739
  27.1351336  35.2407849  30.9836329  26.7090289  25.5338437  31.8762216
  25.9713046  25.0215823  32.2072459  26.9617063  25.0938819  31.0645493
  26.2090309  36.4422948  31.5811367  26.5013283  37.0028005  30.8623733
  26.7188929  36.7351509  32.3364526  26.8101916  18.3114689  32.4703985
  27.1160793  17.4512052  32.1829901  27.5354521  18.9032309  32.2702979
  13.1026272  28.7145376  30.8585583  12.9050672  28.1214736  30.1336650
  12.5472936  28.4097586  31.5761522  21.0822996  28.6068482  32.9780177
  21.1371606  27.6542318  32.9022653  20.2714198  28.7627921  33.4621475
  22.2314190  32.5348605  24.2158460  21.7933620  31.8184464  23.7564097
  22.9724631  32.7624720  23.6543551  19.0215356  27.2245542  30.7370555
  18.2083222  27.5239712  31.1435748  19.5174350  26.8301231  31.4545038
  21.1723934  37.2203299  32.6704820  21.1300113  37.4464145  31.7413352
  22.0886633  36.9866673  32.8190621  24.6189568  27.6887366  39.5685449
  24.9738955  27.9158839  40.4279915  25.2661699  28.0205743  38.9462705
  30.3487305  30.8105802  30.2734778  30.2105203  31.0007398  29.3455968
  29.9923524  31.5725185  30.7302829  18.5129431  24.7963897  36.3531790
  19.1528810  24.6552656  35.6554754  17.6806961  24.5098411  35.9770392
  30.3756684  32.8782329  35.2846050  30.8093191  32.7857618  36.1329104
  31.0888265  32.8539830  34.6466066  19.2889735  34.0966328  32.4666783
  20.0830333  33.6016648  32.2649358  18.5781427  33.5684191  32.1034488
  24.1084579  36.4784423  36.8179150  24.1621601  37.0475360  37.5856866
  23.2399361  36.6486308  36.4533188  15.5972498  28.2409409  28.5426535
  14.6670086  28.1793865  28.7596498  15.6929970  27.7185362  27.7463177
  15.5158047  24.7664222  31.1304777  15.7764865  25.6809556  31.0213938
  16.3375220  24.2988665  31.2801390  16.9882973  26.1801979  38.3003602
  17.6606026  25.9719342  37.6516251  16.1612759  25.9824065  37.8608834
  31.2372234  32.9206030  37.8178935  31.4308124  33.8251840  38.0638210
  31.1372852  32.4613449  38.6517520  22.8908545  22.8063920  40.3169263
  22.2436460  23.5053870  40.2233739  23.6609560  23.2400064  40.6845511
  26.2987343  33.0712773  43.3919816  26.1472849  32.8423324  42.4749900
  26.2892022  34.0283374  43.4051161  23.0672679  30.6444685  38.3766082
  23.9964739  30.7955845  38.2035050  22.6463709  30.7328706  37.5214729
  21.8661011  34.6695350  36.1464620  21.7272096  34.3014134  37.0190558
  21.0775607  35.1842989  35.9748578  22.4609163  39.7704446  27.4890156
  22.6360918  39.2992489  28.3035779  21.7741951  40.3970212  27.7171417
  23.4166226  34.0476952  33.5353458  23.0816058  34.0077722  34.4311108
  22.9170172  33.3821668  33.0623868  17.3910470  29.4544582  39.0606039
  17.2530268  28.7224821  39.6617578  18.3015393  29.3653483  38.7790227
  26.3525418  31.3932987  23.8090517  25.7354588  30.6679815  23.7123570
  25.8841906  32.1542347  23.4657592  20.0192771  29.1664542  38.5489718
  20.7292389  28.5257734  38.5076337  19.9762079  29.4177437  39.4715899
  28.0079549  36.1031895  41.4696298  27.9492095  35.4191115  40.8026881
  28.4099068  36.8450885  41.0176924  18.7321704  26.1529760  40.3685358
  18.1959062  25.7020498  41.0206954  18.1438413  26.2875668  39.6255822
  17.0270248  42.9193809  34.2630017  17.2666846  43.5512333  34.9409035
  16.1839444  42.5681849  34.5495376  28.0096956  34.0671479  39.7010277
  27.1223735  33.7297401  39.8236676  28.5795508  33.3354510  39.9379043
   9.6626104  30.3995571  33.0253329  10.3497143  30.0857301  32.4374344
   9.5074232  31.3036935  32.7520580  14.4660826  25.2885767  37.4538352
  14.3819014  24.6811437  36.7188762  13.6443532  25.7794786  37.4547849
  21.5398110  38.7272931  36.6671521  21.4668281  39.5327903  37.1790825
  21.0975503  38.9264897  35.8419542  21.3287889  37.9644701  30.1774342
  20.5455411  38.5066382  30.2712567  22.0280635  38.4818681  30.5768583
  24.6384540  23.7739331  32.8208548  25.1353239  23.0209293  32.5009618
  23.8671521  23.8103648  32.2551757  32.4914297  29.4779696  34.4626839
  32.4804173  30.3604412  34.0920772  31.6231676  29.1251247  34.2681376
  23.9996793  38.6259765  38.8229679  24.7124766  39.2607230  38.7505581
  23.5086822  38.7223631  38.0069681  25.7214320  32.5311018  30.3946971
  24.7870599  32.6512481  30.2251675  25.8990989  31.6283485  30.1306981
  21.2219508  25.9156714  32.5480232  20.8517296  25.3627754  33.2361138
  21.7178601  25.3114847  31.9955232  29.1086872  28.3728337  30.9297005
  29.5747324  29.2056329  30.8557308  29.5594372  27.9073319  31.6342264
  19.0508707  36.3754209  39.6435250  19.7518166  37.0090692  39.7964644
  18.5803822  36.7168940  38.8830889  27.1763103  34.7172159  27.9283157
  27.4522947  34.6028753  28.8377031  26.3067601  34.3189644  27.8895330
  27.0803534  20.7408924  34.9687906  26.1666614  20.9713151  35.1370113
  27.5096636  20.8247368  35.8201939  26.8509993  28.9298816  37.4687800
  26.1981443  29.1774724  36.8140253  27.2290373  28.1162955  37.1350278
  23.8117167  38.9658510  31.5715971  23.9939561  38.1480165  32.0343723
  24.6350153  39.1826202  31.1340861  24.1459332  37.8926695  28.8331019
  24.6747099  37.3819149  28.2201181  24.4087552  37.5769225  29.6976552
  22.8997566  29.6718627  43.9553838  22.2238203  29.5712757  44.6256213
  23.7225200  29.5157841  44.4189835  14.6476425  35.9090564  36.5766353
  15.2329862  35.1634252  36.7094257  14.4501263  36.2194521  37.4603017
  17.5015080  38.9441811  31.5928795  16.8325455  39.4287939  31.1092835
  17.3627950  39.1911032  32.5072174   9.2394080  28.4796164  35.2970796
   9.2778179  27.9459755  36.0907914   8.7334373  27.9531370  34.6781773
  21.6420349  40.9785555  38.1911453  22.1938657  41.1417176  38.9560539
  21.9826542  41.5689993  37.5191478  16.6184842  23.3260705  38.7933338
  16.6826168  24.1875536  38.3810736  16.5551962  22.7134706  38.0605697
  16.0937115  25.3983837  42.4406372  16.7209153  25.0160915  43.0543897
  15.2365033  25.1798039  42.8062065  26.4931223  35.8046812  44.0460108
  27.0371127  36.4176771  43.5515063  25.9118068  36.3626391  44.5627121
  12.8702657  27.2060266  28.3724727  13.1656098  26.2970945  28.3191781
  11.9690693  27.1848006  28.0505730  24.7788736  38.9267530  35.1775136
  24.6539876  38.1257270  34.6686081  25.4367827  39.4213724  34.6889106
  16.3996904  25.2816263  34.3552276  15.6783490  25.8952231  34.2159749
  17.1890160  25.8174028  34.2768922  26.8423644  36.7276550  36.8054686
  25.8953980  36.6081902  36.7333012  27.1906418  35.8399048  36.8880947
  19.2023218  22.6170689  40.6292928  19.7257620  22.8632986  41.3919237
  18.9835551  23.4490724  40.2096065  14.5990499  24.8874364  28.4964052
  14.2703205  24.0071743  28.3139158  14.9529870  24.8322033  29.3840442
  23.8470078  36.5229267  33.0059038  23.6995040  35.5945974  33.1866608
  24.6723571  36.5449357  32.5216113  17.7132322  25.1747334  28.8639530
  18.0528395  25.7033255  28.1418138  18.1604442  25.5127740  29.6398097
  27.4504200  37.3457825  34.0923911  28.3750747  37.1400687  33.9548362
  27.2819503  37.0974227  35.0013252  20.4075763  23.5584384  38.3142598
  20.0672583  22.7592198  38.7163278  19.7014769  23.8586095  37.7419431
  21.0592235  20.6433697  36.7669921  21.8818304  20.1694175  36.6448812
  21.3030298  21.4224181  37.2668607  19.7000469  23.6721955  27.0632823
  20.4208832  24.0503208  26.5596540  19.0765773  24.3910832  27.1667801
  23.8431592  24.3767104  27.9991155  24.0595206  25.2591742  27.6979983
  23.3625659  23.9853318  27.2696797  18.5830813  27.3352818  34.5761900
  18.4375394  27.6493121  35.4686181  18.1056017  27.9537718  34.0232798
  20.4427196  24.3255366  34.6242789  20.4288765  23.4296459  34.2875087
  21.1599624  24.3326029  35.2581075  22.2953327  24.7592706  36.6695917
  22.0371105  25.6809776  36.6680247  21.7638367  24.3623140  37.3596381
  27.2399516  37.8643493  29.4486002  27.4136393  37.2989915  28.6959855
  27.7328407  38.6644388  29.2665492  13.0576476  29.8758162  37.5149561
  12.5129944  30.6517970  37.6469835  13.9355825  30.2228966  37.3568682
  19.8464092  23.2069746  29.8930359  19.9680003  22.2786392  30.0921247
  19.5566135  23.2208432  28.9808675  22.7155283  20.8924656  33.0297079
  22.7376979  20.9563989  32.0749059  23.1323342  20.0529165  33.2237585
  33.0938907  30.6279916  31.0676302  33.5370053  29.8787241  30.6695425
  32.2165417  30.6190052  30.6850034  28.2274688  37.1810257  26.5482900
  28.9225593  37.8016950  26.7670215  28.5697838  36.3305608  26.8235278
  13.8442497  29.0028058  40.4079718  13.1024233  29.1510694  40.9944348
  13.5235242  29.2636324  39.5446467  30.1266111  34.6309963  28.0770231
  30.6517435  34.9697236  27.3519551  30.0388464  33.6956978  27.8933366
  21.7886160  38.5444036  40.2060108  22.0973287  38.2993183  41.0782807
  22.5861642  38.7490675  39.7178978  21.8106772  40.6981946  32.4365484
  21.3711762  40.2058325  33.1298341  22.5614889  40.1554914  32.1957560
  14.2899111  36.8893487  32.4390112  15.1157131  36.5897259  32.0588756
  13.9393163  36.1201109  32.8879901  19.2580644  36.2419955  34.5087786
  18.6360654  35.5790660  34.2090014  19.9285511  36.2681087  33.8261434
  12.4907716  34.8079813  33.3979046  11.6539624  34.3801988  33.2163047
  12.4631362  35.0012257  34.3349837  19.3305172  24.7201743  44.1020292
  19.3793327  25.5963866  43.7198062  19.8727686  24.1779136  43.5291935
  29.8160017  35.2642866  43.3821429  29.0255561  35.2467005  42.8425929
  29.5793372  35.8031160  44.1370466  29.9357893  32.1135333  40.6954158
  29.9855897  31.9485340  41.6369680  29.8271816  31.2462592  40.3052038
  18.8194151  34.7923878  27.9846247  18.9682272  35.4759343  27.3312919
  19.6260595  34.7728969  28.4995702  27.2261655  28.0966261  42.0113464
  28.1271518  27.9572726  41.7197462  27.3009629  28.2620716  42.9511642
  21.5604460  25.4733116  40.8566651  20.6907770  25.7666682  40.5849239
  21.7963941  26.0573561  41.5773914  31.4376089  34.5332274  40.9396179
  31.1460898  34.8962255  41.7759640  30.8248221  33.8199283  40.7609511
  32.6371772  32.0985154  33.4598749  33.4718663  32.5374958  33.6236310
  32.7730900  31.6223807  32.6406995  29.6863278  29.6564889  39.4076237
  30.1617399  29.8492535  38.5995089  28.7628843  29.7124075  39.1619621
  16.5746784  30.8189056  28.9907316  16.3292826  29.9151386  29.1887526
  16.7442699  30.8206207  28.0486794  24.2643494  21.6912733  38.3732071
  24.7825438  22.4273759  38.0478560  23.9098627  21.9976726  39.2078830
  15.8442432  26.5517414  26.4893477  15.1511677  26.6261769  25.8333513
  15.5994184  25.7877757  27.0114994  24.5156088  18.1113015  33.8932968
  24.7957842  17.4436204  34.5193394  25.3006695  18.3042111  33.3807632
  22.3189557  37.2872009  25.4557994  21.7463524  37.9062196  25.0028466
  22.8922350  37.8371371  25.9897916  28.3864947  26.5330649  37.6404543
  29.3382369  26.6328747  37.6616767  28.2168397  25.7408918  38.1502627
  26.4079326  23.6186232  37.8263944  25.8129258  23.8991245  37.1310432
  26.1229023  24.1080133  38.5980685  25.5386817  37.5709159  26.5866576
  26.4717490  37.5054721  26.7899452  25.4510029  38.4065426  26.1281109
  28.1674833  36.8875029  23.5470524  28.0888465  36.5534893  24.4406282
  28.9884500  37.3796797  23.5461996  30.8653024  29.7536769  36.7546842
  30.8329344  28.8152769  36.9406526  31.4753648  29.8320805  36.0212667
  22.7036355  28.6232822  22.7974047  23.6495460  28.4939030  22.8662465
  22.3250600  27.8847484  23.2743475  31.0147513  26.5447812  36.8005126
  30.4986561  25.7606269  36.6135055  31.8987461  26.2166529  36.9651645
  28.6758240  20.2888828  32.7600938  28.4783061  19.9803916  33.6444270
  29.2857945  21.0150467  32.8898868  36.6829574  30.8152776  35.8952879
  37.4132963  30.5538064  36.4560583  36.0736520  30.0781498  35.9354947
  34.7644871  28.9560638  36.4927330  34.0378035  28.8216603  35.8843822
  34.3492158  29.2637467  37.2984049  22.5875048  32.6750568  44.2574704
  23.5078057  32.8529167  44.4514750  22.5524631  31.7306613  44.1054403
  11.8057213  27.8689161  33.1827978  11.4859997  27.0154470  32.8902352
  11.2590641  28.0837740  33.9385945  15.5837120  30.5851602  36.8997485
  15.8023130  31.5168710  36.9185518  15.9962894  30.2259577  37.6852289
  22.5041338  21.0919688  28.8873173  21.6942066  20.7466773  29.2628419
  23.1925755  20.7827232  29.4760785  24.4331886  20.1697735  30.5097470
  24.9862925  20.5893188  31.1687493  24.6701973  19.2433483  30.5520426
  20.4564986  26.1584808  46.2900234  20.3561713  27.1079165  46.2212325
  20.2386528  25.8303047  45.4176304  11.6745473  31.4892073  35.1521100
  10.9808944  31.0746026  34.6391054  12.4218464  31.5312609  34.5554519
  27.8110693  22.2798260  30.0176134  27.2309363  22.9383064  29.6354186
  27.5446626  21.4575604  29.6063551  26.2614260  21.6803317  32.2197454
  26.7614038  21.7919852  31.4111773  26.9049868  21.3764370  32.8598263
  20.3196256  29.5881947  45.1065295  19.8363337  30.3882307  45.3129184
  20.4057195  29.5989892  44.1532739  13.5882215  31.4210327  33.0287115
  13.5652903  31.5198014  32.0768998  13.8982852  32.2675478  33.3504281
  16.2469593  33.4786482  37.1433729  17.2012847  33.4470424  37.0763661
  16.0482117  33.0177106  37.9583955  16.8368975  32.0487598  39.7104527
  17.6561864  32.5431677  39.7339364  17.1105783  31.1319566  39.6822094
  26.5935572  24.4398350  29.0732482  25.7061427  24.7248001  28.8552677
  27.0089561  24.2792114  28.2259759  29.9450108  24.4644871  32.7886821
  30.7210498  24.9541324  33.0611438  29.2198242  24.8902925  33.2458691
  32.3822666  25.1772490  33.8460762  32.9767157  24.9368226  33.1354070
  32.4549250  24.4579621  34.4734298  14.6019822  39.0206101  34.1603927
  14.4674290  38.2606502  33.5941925  14.1851884  39.7447001  33.6932716
  25.7378785  34.2043025  23.1680502  26.4414635  34.4093027  23.7838158
  25.0141434  34.7719787  23.4329586  26.5676595  29.9552886  29.2882772
  26.5111797  30.4121438  28.4490405  27.1204938  29.1943571  29.1105615
  30.3781401  25.7442618  30.1132892  30.1218335  25.3439254  30.9441100
  29.7534269  26.4586412  29.9883031  34.6893739  28.4838691  32.6204183
  34.1293297  28.5531881  33.3935745  34.0837242  28.3079676  31.9003680
  17.7588948  39.9175418  34.3722370  17.6421332  40.8620851  34.2701060
  16.9381394  39.6148980  34.7608169  27.6465482  34.6425554  25.2178962
  28.4811086  34.2106752  25.0356437  27.4849825  34.4707568  26.1455857
  27.3011375  31.1457667  26.5835302  27.2460178  30.9801939  25.6423746
  26.6757430  31.8533700  26.7397491  12.0903890  26.3825732  40.4096724
  12.7362753  25.8724686  40.8983949  11.8821041  27.1194413  40.9840149
  24.6157282  33.4506579  45.9088864  25.4848441  33.6247231  45.5475499
  24.1364033  34.2700996  45.7864594  18.7843462  40.5703680  37.5878298
  19.6870709  40.6027290  37.9044793  18.5580832  39.6404131  37.6024634
  20.5397064  39.3234667  34.2488377  19.5892695  39.3236528  34.1352749
  20.8429550  38.5767401  33.7324411  24.4259619  17.2408553  30.4166557
  23.6592015  16.6867040  30.5623239  24.8370324  17.3130422  31.2780708
  16.4301381  23.5293349  44.5071738  17.2932842  23.1730154  44.7175063
  15.8566791  23.1907244  45.1947142  36.2749757  45.1595205  35.3134139
  36.9128167  45.0401952  34.6097479  36.1570600  46.1076049  35.3722091
  33.0839464  45.1122633  35.2495664  32.7457975  44.9963698  34.3616199
  33.9529232  44.7113798  35.2296670  28.9426279  46.9658110  31.2392555
  28.3791145  46.8748047  30.4708842  28.8278674  46.1458014  31.7195047
  33.5659247  46.2657485  41.2081869  33.5547888  45.8710283  40.3362373
  33.7279886  45.5323558  41.8015641  26.4890711  48.4609301  34.0776775
  27.2812003  48.1200126  33.6623074  26.7287362  48.5704276  34.9978928
  34.5225838  50.6329077  26.5507020  33.8713818  51.2183158  26.1641033
  35.3170201  51.1635272  26.6102057  28.4481465  47.7218214  26.9494154
  29.2212341  47.1747202  26.8107030  28.8006864  48.5862464  27.1608615
  30.2866508  49.0494597  40.1561053  29.9956374  49.9540228  40.0407720
  30.9223492  49.0911124  40.8705123  31.2122715  46.4271445  36.7462413
  31.8086287  46.2027468  36.0319376  31.2697686  45.6856191  37.3487861
  30.7847743  43.8810881  24.5812604  31.0373264  43.3592402  23.8196067
  29.8472302  43.7177026  24.6839287  35.8291026  42.8846659  32.3887347
  36.6154115  42.4666082  32.0377764  36.0929730  43.7892751  32.5568995
  36.0001103  48.3219509  27.0876004  35.3646936  48.3954136  27.7996908
  35.6698510  48.9113108  26.4095083  41.2299453  42.8221892  33.2920326
  41.9624625  42.2521109  33.5258155  40.4738809  42.4343493  33.7326831
  30.5044032  45.7838987  26.7836979  30.3880290  45.1083890  27.4518063
  30.6146292  45.2971361  25.9669132  32.8475573  45.2449134  30.4883668
  32.4833780  44.7179755  31.1996589  33.7042689  44.8547603  30.3150153
  38.7524873  36.5343466  37.7514934  38.4208198  37.4038877  37.5276149
  38.1570487  36.2179750  38.4308965  32.4881060  40.2739033  25.4845017
  32.6555462  41.1419270  25.8515488  32.2978229  40.4366315  24.5606306
  28.6968874  45.1869809  33.1847551  27.7719371  45.0546023  33.3925243
  28.9453288  45.9664028  33.6817494  38.6453537  41.2538552  34.8308284
  37.7370414  41.1853961  34.5367045  38.5941133  41.7310497  35.6590110
  32.4670281  42.7296691  26.4691683  32.3469906  43.1753742  27.3077164
  31.7722869  43.0782009  25.9105221  26.0577685  44.8303083  34.0191340
  26.1870067  45.0837562  34.9330752  25.3775137  45.4230791  33.6995995
  30.2277173  55.5000333  30.1181815  30.1501202  56.4508158  30.1970295
  29.6238816  55.1546205  30.7756741  32.7194403  42.6728198  42.7743181
  31.9427737  43.2322118  42.7646046  33.3584966  43.1584981  43.2958052
  40.5115183  39.4554991  36.6086158  39.8689563  39.7487524  35.9625953
  40.0070112  39.3407911  37.4139355  38.1655347  43.2018164  27.2972017
  39.0773203  43.4345551  27.1219715  37.6564994  43.7855208  26.7347096
  30.9740775  45.4813651  42.3361148  31.7155459  46.0198695  42.0595972
  30.2677760  46.1079940  42.4932700  32.8027185  42.5615399  38.3066867
  33.6488380  42.9854812  38.4501516  32.7425822  41.9049023  39.0005430
  36.7724929  48.1843982  34.6885599  36.1433792  48.3489697  33.9861667
  36.3850591  48.5985592  35.4596563  40.6514161  49.1198420  32.0429963
  39.9665199  49.4997322  31.4926996  40.7358010  49.7293747  32.7761910
  35.9526630  40.2219767  39.9648041  35.7087562  40.9761828  39.4282316
  36.2286560  40.6005115  40.7995288  35.5091322  39.3776200  35.5461878
  34.6475801  39.6757454  35.8378616  35.5353756  39.5946599  34.6142911
  32.3252891  47.9218391  31.9535684  32.7891237  48.2006094  31.1640306
  32.0609689  47.0201835  31.7708775  29.2176972  47.4689872  34.8915447
  29.7878329  47.8977140  34.2532932  29.8085084  47.1872457  35.5899633
  31.2621777  44.0441543  28.7625249  31.9645820  44.4962587  29.2299175
  30.9302406  43.4025362  29.3905142  29.7102139  42.6353300  43.1376458
  29.0800799  43.3169580  43.3711855  29.6038226  42.5236381  42.1929597
  25.0047111  42.3025096  34.0642383  24.2146165  42.5582624  33.5882493
  25.4958358  43.1173433  34.1694423  26.9561856  42.6669675  31.0225859
  26.1593020  42.7788369  31.5409355  26.7287449  43.0056327  30.1566750
  23.2884814  42.5555586  36.4957373  23.5392852  43.4402596  36.7614949
  23.8244362  42.3760188  35.7232465  32.5015542  50.8582486  28.8387354
  32.3661216  51.7034021  29.2672202  33.0425354  51.0601763  28.0753288
  28.9882881  36.9374065  45.5001710  28.5949827  36.3840264  46.1749354
  29.8049022  37.2484644  45.8908227  25.9544939  48.3757924  29.4115279
  26.4669460  49.1701174  29.5620844  26.6067652  47.6784214  29.3448881
  27.7639824  51.4923680  31.4938033  27.9406452  52.4141645  31.3059016
  28.5596657  51.1782099  31.9232412  31.9050842  38.3531945  43.0921966
  32.6460556  38.9539098  43.0126429  32.1368765  37.6109582  42.5340009
  27.0492180  43.5388312  41.3700196  26.9345695  42.6373569  41.6707295
  26.1936698  43.7852009  41.0185012  28.8871139  53.0101854  37.4948375
  29.4378564  52.8818917  36.7225369  28.0482615  53.3096743  37.1443268
  35.8508005  34.3813047  37.3686248  35.5072275  35.2714689  37.2925358
  36.2186968  34.1914705  36.5055833  23.9193856  46.7046578  30.1874850
  24.7569078  47.1143586  29.9708558  24.0972124  45.7646020  30.1575044
  35.8158288  44.3721659  25.8758683  35.3004911  45.1426263  26.1147070
  35.5435596  43.6986795  26.4991744  33.4005399  39.2171359  30.9343921
  32.5446995  38.8278210  30.7549560  33.8132351  39.2963320  30.0743707
  34.9304546  36.7517703  35.3335481  34.4269341  36.7147838  34.5203286
  35.2235152  37.6610445  35.3932138  31.1747432  36.8356432  34.3401663
  32.0400428  36.6399241  33.9807552  31.2424940  36.6066784  35.2671020
  40.7892562  47.1254013  27.8111856  40.0122005  46.7865173  27.3667018
  41.4684043  47.1306636  27.1366821  35.6044591  42.2448751  27.7018464
  35.2994727  42.5594900  28.5528607  36.5575033  42.3230171  27.7445797
  34.0491023  48.4038974  29.3511418  33.5212385  47.6691734  29.0384655
  33.5478526  49.1813650  29.1051386  39.0283869  46.5987994  34.4678464
  38.3707543  47.2887256  34.5558593  39.8324268  46.9884426  34.8112451
  28.7809751  39.0658640  31.7118030  29.3553502  38.8433822  30.9791223
  29.3680733  39.1347335  32.4646631  37.8389328  44.9532367  32.5182406
  38.3521210  45.5862359  33.0204116  38.4890552  44.3533563  32.1525766
  29.1079338  41.0963101  25.7313915  28.2716650  41.4337788  26.0523190
  28.9684107  40.9612081  24.7941052  31.0832418  35.9399889  30.4393099
  30.4296831  35.6248906  29.8149714  31.0412892  35.3175630  31.1652922
  32.1943623  46.2219184  22.3546391  31.2870685  45.9908438  22.5537540
  32.6914655  45.4256803  22.5420373  35.1011702  54.9316691  25.2743077
  34.4273401  55.2348388  25.8828035  35.4877524  55.7345772  24.9248534
  34.3170159  42.4281823  34.7640747  33.3992720  42.6496770  34.6062435
  34.7330302  42.5028133  33.9052454  35.1005206  43.8273238  29.8943427
  35.8477025  44.3394636  29.5850549  35.3696796  43.5057291  30.7547820
  33.3731857  46.3231779  26.8770381  32.4643076  46.0390812  26.9742851
  33.4026940  46.7430858  26.0173688  38.6051124  49.9338369  30.6461549
  38.1513451  49.0929278  30.7026739  37.9745091  50.5699767  30.9836329
  37.5484044  40.8630355  31.8762216  36.8106800  40.3507741  32.2072459
  37.8010817  40.4230736  31.0645493  37.0484063  51.7714865  31.5811367
  37.3407038  52.3319922  30.8623733  37.5582684  52.0643426  32.3364526
  37.6495671  33.6406607  32.4703985  37.9554548  32.7803970  32.1829901
  38.3748276  34.2324227  32.2702979  23.9420027  44.0437293  30.8585583
  23.7444427  43.4506654  30.1336650  23.3866691  43.7389503  31.5761522
  31.9216751  43.9360400  32.9780177  31.9765360  42.9834236  32.9022653
  31.1107953  44.0919839  33.4621475  33.0707944  47.8640523  24.2158460
  32.6327374  47.1476382  23.7564097  33.8118385  48.0916638  23.6543551
  29.8609111  42.5537459  30.7370555  29.0476976  42.8531630  31.1435748
  30.3568105  42.1593148  31.4545038  32.0117688  52.5495216  32.6704820
  31.9693867  52.7756063  31.7413352  32.9280387  52.3158591  32.8190621
  35.4583322  43.0179284  39.5685449  35.8132710  43.2450757  40.4279915
  36.1055453  43.3497661  38.9462705  41.1881059  46.1397720  30.2734778
  41.0498958  46.3299316  29.3455968  40.8317278  46.9017103  30.7302829
  29.3523185  40.1255815  36.3531790  29.9922565  39.9844574  35.6554754
  28.5200716  39.8390328  35.9770392  41.2150439  48.2074247  35.2846050
  41.6486945  48.1149536  36.1329104  41.9282019  48.1831747  34.6466066
  30.1283489  49.4258245  32.4666783  30.9224088  48.9308566  32.2649358
  29.4175182  48.8976109  32.1034488  34.9478334  51.8076341  36.8179150
  35.0015356  52.3767277  37.5856866  34.0793115  51.9778226  36.4533188
  26.4366253  43.5701327  28.5426535  25.5063841  43.5085783  28.7596498
  26.5323725  43.0477280  27.7463177  26.3551802  40.0956140  31.1304777
  26.6158619  41.0101473  31.0213938  27.1768974  39.6280583  31.2801390
  27.8276727  41.5093897  38.3003602  28.4999780  41.3011259  37.6516251
  27.0006514  41.3115983  37.8608834  42.0765988  48.2497947  37.8178935
  42.2701878  49.1543758  38.0638210  41.9766607  47.7905367  38.6517520
  33.7302299  38.1355838  40.3169263  33.0830214  38.8345788  40.2233739
  34.5003314  38.5691982  40.6845511  33.9066433  45.9736603  38.3766082
  34.8358493  46.1247763  38.2035050  33.4857463  46.0620624  37.5214729
  32.7054765  49.9987267  36.1464620  32.5665851  49.6306052  37.0190558
  31.9169361  50.5134907  35.9748578  33.3002917  55.0996364  27.4890156
  33.4754673  54.6284407  28.3035779  32.6135705  55.7262130  27.7171417
  34.2559980  49.3768870  33.5353458  33.9209813  49.3369640  34.4311108
  33.7563926  48.7113586  33.0623868  28.2304224  44.7836500  39.0606039
  28.0924022  44.0516739  39.6617578  29.1409148  44.6945400  38.7790227
  37.1919172  46.7224904  23.8090517  36.5748343  45.9971733  23.7123570
  36.7235660  47.4834265  23.4657592  30.8586525  44.4956459  38.5489718
  31.5686144  43.8549652  38.5076337  30.8155833  44.7469354  39.4715899
  29.5715459  41.4821677  40.3685358  29.0352816  41.0312416  41.0206954
  28.9832167  41.6167586  39.6255822  27.8664002  58.2485727  34.2630017
  28.1060601  58.8804251  34.9409035  27.0233199  57.8973767  34.5495376
  28.9817718  40.9410329  22.9311822  28.1047184  40.8199130  22.5674068
  29.4575471  40.1496407  22.6790710  20.5019858  45.7287488  33.0253329
  21.1890898  45.4149218  32.4374344  20.3467987  46.6328853  32.7520580
  25.3054580  40.6177685  37.4538352  25.2212769  40.0103355  36.7188762
  24.4837287  41.1086703  37.4547849  32.1681644  53.2936619  30.1774342
  31.3849166  53.8358299  30.2712567  32.8674389  53.8110599  30.5768583
  35.4778294  39.1031249  32.8208548  35.9746994  38.3501211  32.5009618
  34.7065276  39.1395565  32.2551757  43.3308051  44.8071614  34.4626839
  43.3197928  45.6896330  34.0920772  42.4625431  44.4543165  34.2681376
  36.5608075  47.8602936  30.3946971  35.6264354  47.9804398  30.2251675
  36.7384743  46.9575403  30.1306981  32.0613263  41.2448632  32.5480232
  31.6911050  40.6919672  33.2361138  32.5572355  40.6406765  31.9955232
  39.9480626  43.7020255  30.9297005  40.4141078  44.5348247  30.8557308
  40.3988127  43.2365237  31.6342264  29.8902461  51.7046127  39.6435250
  30.5911921  52.3382610  39.7964644  29.4197576  52.0460858  38.8830889
  38.0156857  50.0464076  27.9283157  38.2916701  49.9320671  28.8377031
  37.1461356  49.6481561  27.8895330  37.9197289  36.0700842  34.9687906
  37.0060369  36.3005069  35.1370113  38.3490390  36.1539286  35.8201939
  37.6903747  44.2590734  37.4687800  37.0375198  44.5066641  36.8140253
  38.0684127  43.4454872  37.1350278  34.6510921  54.2950427  31.5715971
  34.8333316  53.4772083  32.0343723  35.4743907  54.5118119  31.1340861
  34.9853087  53.2218612  28.8331019  35.5140853  52.7111067  28.2201181
  35.2481306  52.9061143  29.6976552  33.7391320  45.0010545  43.9553838
  33.0631957  44.9004674  44.6256213  34.5618954  44.8449759  44.4189835
  25.4870179  51.2382482  36.5766353  26.0723616  50.4926170  36.7094257
  25.2895018  51.5486438  37.4603017  28.3408835  54.2733729  31.5928795
  27.6719210  54.7579857  31.1092835  28.2021704  54.5202949  32.5072174
  20.0787834  43.8088082  35.2970796  20.1171934  43.2751673  36.0907914
  19.5728127  43.2823287  34.6781773  27.4578596  38.6552622  38.7933338
  27.5219923  39.5167453  38.3810736  27.3945717  38.0426624  38.0605697
  26.9330869  40.7275755  42.4406372  27.5602908  40.3452832  43.0543897
  26.0758788  40.5089957  42.8062065  23.7096412  42.5352184  28.3724727
  24.0049853  41.6262862  28.3191781  22.8084448  42.5139923  28.0505730
  27.2390659  40.6108181  34.3552276  26.5177245  41.2244148  34.2159749
  28.0283915  41.1465945  34.2768922  30.0416972  37.9462607  40.6292928
  30.5651374  38.1924904  41.3919237  29.8229306  38.7782642  40.2096065
  25.4384253  40.2166282  28.4964052  25.1096960  39.3363661  28.3139158
  25.7923624  40.1613950  29.3840442  34.6863832  51.8521184  33.0059038
  34.5388795  50.9237892  33.1866608  35.5117326  51.8741275  32.5216113
  28.5526077  40.5039251  28.8639530  28.8922149  41.0325173  28.1418138
  28.9998197  40.8419658  29.6398097  38.2897954  52.6749743  34.0923911
  39.2144502  52.4692604  33.9548362  38.1213257  52.4266144  35.0013252
  31.2469517  38.8876302  38.3142598  30.9066338  38.0884115  38.7163278
  30.5408524  39.1878013  37.7419431  31.8985989  35.9725615  36.7669921
  32.7212058  35.4986093  36.6448812  32.1424053  36.7516098  37.2668607
  30.5394224  39.0013873  27.0632823  31.2602586  39.3795126  26.5596540
  29.9159528  39.7202750  27.1667801  34.6825347  39.7059022  27.9991155
  34.8988961  40.5883660  27.6979983  34.2019414  39.3145235  27.2696797
  29.4224568  42.6644735  34.5761900  29.2769149  42.9785038  35.4686181
  28.9449772  43.2829636  34.0232798  31.2820951  39.6547283  34.6242789
  31.2682520  38.7588377  34.2875087  31.9993379  39.6617947  35.2581075
  33.1347082  40.0884623  36.6695917  32.8764859  41.0101694  36.6680247
  32.6032122  39.6915058  37.3596381  38.0793270  53.1935411  29.4486002
  38.2530148  52.6281833  28.6959855  38.5722162  53.9936305  29.2665492
  23.8970230  45.2050080  37.5149561  23.3523698  45.9809888  37.6469835
  24.7749580  45.5520884  37.3568682  30.6857847  38.5361663  29.8930359
  30.8073758  37.6078310  30.0921247  30.3959889  38.5500349  28.9808675
  33.5549037  36.2216574  33.0297079  33.5770734  36.2855907  32.0749059
  33.9717096  35.3821083  33.2237585  43.9332661  45.9571833  31.0676302
  44.3763807  45.2079159  30.6695425  43.0559172  45.9481970  30.6850034
  39.0668443  52.5102175  26.5482900  39.7619347  53.1308868  26.7670215
  39.4091593  51.6597526  26.8235278  24.6836252  44.3319976  40.4079718
  23.9417988  44.4802611  40.9944348  24.3628996  44.5928241  39.5446467
  40.9659866  49.9601880  28.0770231  41.4911190  50.2989153  27.3519551
  40.8782218  49.0248896  27.8933366  32.6279915  53.8735954  40.2060108
  32.9367041  53.6285101  41.0782807  33.4255397  54.0782593  39.7178978
  25.1292866  52.2185405  32.4390112  25.9550886  51.9189176  32.0588756
  24.7786918  51.4493027  32.8879901  30.0974399  51.5711873  34.5087786
  29.4754408  50.9082578  34.2090014  30.7679266  51.5973005  33.8261434
  23.3301471  50.1371731  33.3979046  22.4933379  49.7093905  33.2163047
  23.3025116  50.3304174  34.3349837  30.1698926  40.0493661  44.1020292
  30.2187082  40.9255784  43.7198062  30.7121440  39.5071054  43.5291935
  29.6587906  50.1215796  27.9846247  29.8076026  50.8051261  27.3312919
  30.4654349  50.1020886  28.4995702  32.3998215  40.8025033  40.8566651
  31.5301524  41.0958599  40.5849239  32.6357695  41.3865478  41.5773914
  43.4765526  47.4277072  33.4598749  44.3112418  47.8666876  33.6236310
  43.6124655  46.9515725  32.6406995  27.4140539  46.1480974  28.9907316
  27.1686581  45.2443304  29.1887526  27.5836453  46.1498124  28.0486794
  35.1037249  37.0204650  38.3732071  35.6219192  37.7565677  38.0478560
  34.7492381  37.3268643  39.2078830  26.6836186  41.8809331  26.4893477
  25.9905431  41.9553686  25.8333513  26.4387938  41.1169675  27.0114994
  35.3549843  33.4404933  33.8932968  35.6351596  32.7728122  34.5193394
  36.1400450  33.6334028  33.3807632  33.1583311  52.6163927  25.4557994
  32.5857278  53.2354114  25.0028466  33.7316105  53.1663288  25.9897916
  39.2258701  41.8622567  37.6404543  40.1776124  41.9620664  37.6616767
  39.0562151  41.0700835  38.1502627  37.2473081  38.9478150  37.8263944
  36.6523013  39.2283163  37.1310432  36.9622777  39.4372051  38.5980685
  36.3780571  52.9001077  26.5866576  37.3111244  52.8346638  26.7899452
  36.2903784  53.7357344  26.1281109  39.0068588  52.2166947  23.5470524
  38.9282219  51.8826811  24.4406282  39.8278254  52.7088715  23.5461996
  41.7046779  45.0828686  36.7546842  41.6723099  44.1444687  36.9406526
  42.3147403  45.1612723  36.0212667  33.5430110  43.9524739  22.7974047
  34.4889214  43.8230947  22.8662465  33.1644355  43.2139401  23.2743475
  41.8541267  41.8739730  36.8005126  41.3380316  41.0898186  36.6135055
  42.7381216  41.5458446  36.9651645  39.5151994  35.6180745  32.7600938
  39.3176815  35.3095834  33.6444270  40.1251700  36.3442384  32.8898868
  31.7273027  41.8774716  22.7328932  30.8204482  41.5807828  22.8091645
  32.0049008  41.5804534  21.8663218  22.6450967  43.1981079  33.1827978
  22.3253752  42.3446387  32.8902352  22.0984395  43.4129657  33.9385945
  26.4230875  45.9143520  36.8997485  26.6416885  46.8460628  36.9185518
  26.8356649  45.5551495  37.6852289  33.3435093  36.4211605  28.8873173
  32.5335821  36.0758690  29.2628419  34.0319510  36.1119149  29.4760785
  35.2725641  35.4989652  30.5097470  35.8256679  35.9185106  31.1687493
  35.5095727  34.5725400  30.5520426  31.2958740  41.4876726  46.2900234
  31.1955467  42.4371083  46.2212325  31.0780282  41.1594965  45.4176304
  30.4971812  38.7361651  22.8740911  31.3590975  39.0616549  23.1336728
  30.6822156  37.9493147  22.3613977  22.5139227  46.8183991  35.1521100
  21.8202699  46.4037943  34.6391054  23.2612218  46.8604527  34.5554519
  38.6504448  37.6090177  30.0176134  38.0703117  38.2674981  29.6354186
  38.3840381  36.7867522  29.6063551  37.1008014  37.0095235  32.2197454
  37.6007793  37.1211770  31.4111773  37.7443622  36.7056288  32.8598263
  31.1590010  44.9173865  45.1065295  30.6757092  45.7174225  45.3129184
  31.2450949  44.9281810  44.1532739  24.4275970  46.7502244  33.0287115
  24.4046658  46.8489932  32.0768998  24.7376606  47.5967395  33.3504281
  27.0863348  48.8078399  37.1433729  28.0406601  48.7762342  37.0763661
  26.8875871  48.3469023  37.9583955  27.6762730  47.3779516  39.7104527
  28.4955619  47.8723594  39.7339364  27.9499537  46.4611484  39.6822094
  37.4329326  39.7690268  29.0732482  36.5455181  40.0539918  28.8552677
  37.8483315  39.6084031  28.2259759  40.7843862  39.7936789  32.7886821
  41.5604252  40.2833241  33.0611438  40.0591996  40.2194843  33.2458691
  43.2216421  40.5064408  33.8460762  43.8160912  40.2660144  33.1354070
  43.2943004  39.7871539  34.4734298  25.4413576  54.3498019  34.1603927
  25.3068044  53.5898420  33.5941925  25.0245639  55.0738919  33.6932716
  36.5772539  49.5334942  23.1680502  37.2808390  49.7384945  23.7838158
  35.8535188  50.1011704  23.4329586  37.4070350  45.2844804  29.2882772
  37.3505551  45.7413355  28.4490405  37.9598692  44.5235488  29.1105615
  41.2175156  41.0734536  30.1132892  40.9612090  40.6731171  30.9441100
  40.5928024  41.7878330  29.9883031  45.5287494  43.8130609  32.6204183
  44.9687051  43.8823798  33.3935745  44.9230997  43.6371593  31.9003680
  28.5982702  55.2467336  34.3722370  28.4815086  56.1912768  34.2701060
  27.7775149  54.9440898  34.7608169  38.4859237  49.9717472  25.2178962
  39.3204841  49.5398670  25.0356437  38.3243580  49.7999485  26.1455857
  38.1405129  46.4749585  26.5835302  38.0853933  46.3093856  25.6423746
  37.5151184  47.1825618  26.7397491  22.9297644  41.7117649  40.4096724
  23.5756508  41.2016603  40.8983949  22.7214795  42.4486331  40.9840149
  31.4501255  35.9757694  26.1620620  31.4379924  36.9199534  26.3188891
  32.3424676  35.7927839  25.8680081  29.6237216  55.8995598  37.5878298
  30.5264463  55.9319208  37.9044793  29.3974587  54.9696049  37.6024634
  35.2653374  32.5700471  30.4166557  34.4985770  32.0158957  30.5623239
  35.6764079  32.6422339  31.2780708  27.2695135  38.8585266  44.5071738
  28.1326597  38.5022071  44.7175063  26.6960546  38.5199161  45.1947142
  39.7820034  62.2950027  31.2392555  39.2184899  62.2039964  30.4708842
  39.6672429  61.4749932  31.7195047  37.3284466  63.7901219  34.0776775
  38.1205758  63.4492044  33.6623074  37.5681116  63.8996194  34.9978928
  45.3619593  65.9620995  26.5507020  44.7107572  66.5475075  26.1641033
  46.1563955  66.4927190  26.6102057  39.2875220  63.0510132  26.9494154
  40.0606096  62.5039119  26.8107030  39.6400619  63.9154381  27.1608615
  41.6241498  59.2102798  24.5812604  41.8767018  58.6884320  23.8196067
  40.6866057  59.0468944  24.6839287  46.8394858  63.6511427  27.0876004
  46.2040691  63.7246053  27.7996908  46.5092264  64.2405026  26.4095083
  41.3437786  61.1130904  26.7836979  41.2274044  60.4375808  27.4518063
  41.4540046  60.6263278  25.9669132  43.6869327  60.5741051  30.4883668
  43.3227535  60.0471672  31.1996589  44.5436443  60.1839520  30.3150153
  43.3274814  55.6030951  25.4845017  43.4949217  56.4711187  25.8515488
  43.1371983  55.7658233  24.5606306  39.5362629  60.5161727  33.1847551
  38.6113125  60.3837941  33.3925243  39.7847042  61.2955946  33.6817494
  43.3064035  58.0588609  26.4691683  43.1863660  58.5045659  27.3077164
  42.6116624  58.4073926  25.9105221  41.0670927  70.8292250  30.1181815
  40.9894957  71.7800075  30.1970295  40.4632571  70.4838123  30.7756741
  47.6118684  63.5135900  34.6885599  46.9827546  63.6781614  33.9861667
  47.2244346  63.9277510  35.4596563  51.4907916  64.4490338  32.0429963
  50.8058954  64.8289239  31.4926996  51.5751765  65.0585665  32.7761910
  43.1646645  63.2510308  31.9535684  43.6284991  63.5298011  31.1640306
  42.9003444  62.3493753  31.7708775  42.1015532  59.3733461  28.7625249
  42.8039575  59.8254504  29.2299175  41.7696160  58.7317279  29.3905142
  49.8604675  64.9722252  36.8147663  50.6822119  64.5702440  36.5330345
  49.8567078  64.8690487  37.7663779  37.7955611  57.9961593  31.0225859
  36.9986774  58.1080287  31.5409355  37.5681203  58.3348245  30.1566750
  43.3409296  66.1874403  28.8387354  43.2054971  67.0325939  29.2672202
  43.8819109  66.3893681  28.0753288  36.7938694  63.7049841  29.4115279
  37.3063214  64.4993092  29.5620844  37.4461406  63.0076132  29.3448881
  38.6033578  66.8215598  31.4938033  38.7800207  67.7433562  31.3059016
  39.3990412  66.5074017  31.9232412  39.7264894  68.3393771  37.4948375
  40.2772319  68.2110835  36.7225369  38.8876370  68.6388660  37.1443268
  34.7587610  62.0338496  30.1874850  35.5962832  62.4435504  29.9708558
  34.9365878  61.0937938  30.1575044  46.6552042  59.7013576  25.8758683
  46.1398666  60.4718181  26.1147070  46.3829351  59.0278712  26.4991744
  44.8884777  63.7330892  29.3511418  44.3606139  62.9983651  29.0384655
  44.3872280  64.5105568  29.1051386  39.9473092  56.4255019  25.7313915
  39.1110404  56.7629706  26.0523190  39.8077862  56.2903999  24.7941052
  43.0337378  61.5511102  22.3546391  42.1264439  61.3200355  22.5537540
  43.5308410  60.7548721  22.5420373  45.9405457  70.2608609  25.2743077
  45.2667155  70.5640306  25.8828035  46.3271279  71.0637689  24.9248534
  44.2125611  61.6523697  26.8770381  43.3036830  61.3682730  26.9742851
  44.2420695  62.0722775  26.0173688  49.4444879  65.2630286  30.6461549
  48.9907206  64.4221196  30.7026739  48.8138845  65.8991685  30.9836329
  47.8877818  67.1006783  31.5811367  48.1800792  67.6611840  30.8623733
  48.3976438  67.3935344  32.3364526  43.9101699  63.1932440  24.2158460
  43.4721129  62.4768299  23.7564097  44.6512140  63.4208555  23.6543551
  42.8511443  67.8787134  32.6704820  42.8087622  68.1047980  31.7413352
  43.7674142  67.6450509  32.8190621  40.9677244  64.7550163  32.4666783
  41.7617842  64.2600483  32.2649358  40.2568936  64.2268026  32.1034488
  37.2760007  58.8993245  28.5426535  36.3457595  58.8377700  28.7596498
  37.3717479  58.3769198  27.7463177  37.1945556  55.4248058  31.1304777
  37.4552374  56.3393391  31.0213938  38.0162729  54.9572500  31.2801390
  52.9159743  63.5789865  37.8178935  53.1095633  64.4835676  38.0638210
  52.8160361  63.1197284  38.6517520  44.1396672  70.4288282  27.4890156
  44.3148427  69.9576325  28.3035779  43.4529460  71.0554048  27.7171417
  45.0953735  64.7060788  33.5353458  44.7603567  64.6661558  34.4311108
  44.5957681  64.0405504  33.0623868  48.0312927  62.0516822  23.8090517
  47.4142097  61.3263650  23.7123570  47.5629415  62.8126182  23.4657592
  38.7057757  73.5777644  34.2630017  38.9454355  74.2096168  34.9409035
  37.8626953  73.2265684  34.5495376  39.8211472  56.2702246  22.9311822
  38.9440939  56.1491047  22.5674068  40.2969225  55.4788325  22.6790710
  43.2185619  69.3856767  36.6671521  43.1455790  70.1911738  37.1790825
  42.7763012  69.5848733  35.8419542  43.0075398  68.6228537  30.1774342
  42.2242920  69.1650217  30.2712567  43.7068144  69.1402516  30.5768583
  47.4001829  63.1894853  30.3946971  46.4658108  63.3096316  30.2251675
  47.5778498  62.2867320  30.1306981  40.7296216  67.0338044  39.6435250
  41.4305675  67.6674527  39.7964644  40.2591331  67.3752776  38.8830889
  48.8550612  65.3755994  27.9283157  49.1310456  65.2612589  28.8377031
  47.9855110  64.9773479  27.8895330  45.4904676  69.6242345  31.5715971
  45.6727070  68.8064001  32.0343723  46.3137662  69.8410037  31.1340861
  45.8246841  68.5510530  28.8331019  46.3534608  68.0402985  28.2201181
  46.0875061  68.2353060  29.6976552  36.3263934  66.5674399  36.5766353
  36.9117371  65.8218087  36.7094257  36.1288772  66.8778356  37.4603017
  39.1802589  69.6025647  31.5928795  38.5112964  70.0871774  31.1092835
  39.0415459  69.8494867  32.5072174  43.3207858  71.6369390  38.1911453
  43.8726166  71.8001012  38.9560539  43.6614051  72.2273828  37.5191478
  48.1718732  66.4630648  44.0460108  48.7158636  67.0760606  43.5515063
  47.5905577  67.0210226  44.5627121  34.5490166  57.8644102  28.3724727
  34.8443607  56.9554780  28.3191781  33.6478202  57.8431841  28.0505730
  46.4576245  69.5851366  35.1775136  46.3327384  68.7841106  34.6686081
  47.1155336  70.0797559  34.6889106  36.2778008  55.5458199  28.4964052
  35.9490714  54.6655578  28.3139158  36.6317379  55.4905868  29.3840442
  45.5257587  67.1813102  33.0059038  45.3782549  66.2529809  33.1866608
  46.3511080  67.2033193  32.5216113  39.3919831  55.8331169  28.8639530
  39.7315904  56.3617090  28.1418138  39.8391951  56.1711575  29.6398097
  49.1291709  68.0041661  34.0923911  50.0538256  67.7984522  33.9548362
  48.9607012  67.7558062  35.0013252  41.3787978  54.3305791  27.0632823
  42.0996341  54.7087043  26.5596540  40.7553282  55.0494668  27.1667801
  48.9187025  68.5227328  29.4486002  49.0923902  67.9573751  28.6959855
  49.4115916  69.3228223  29.2665492  49.9062197  67.8394093  26.5482900
  50.6013102  68.4600785  26.7670215  50.2485347  66.9889444  26.8235278
  51.8053620  65.2893798  28.0770231  52.3304944  65.6281071  27.3519551
  51.7175973  64.3540813  27.8933366  43.4673669  69.2027872  40.2060108
  43.7760796  68.9577019  41.0782807  44.2649151  69.4074510  39.7178978
  43.4894281  71.3565781  32.4365484  43.0499271  70.8642160  33.1298341
  44.2402398  70.8138749  32.1957560  35.9686620  67.5477322  32.4390112
  36.7944640  67.2481094  32.0588756  35.6180672  66.7784945  32.8879901
  40.9368153  66.9003791  34.5087786  40.3148163  66.2374496  34.2090014
  41.6073020  66.9264922  33.8261434  34.1695225  65.4663649  33.3979046
  33.3327133  65.0385823  33.2163047  34.1418871  65.6596092  34.3349837
  51.4947526  65.9226702  43.3821429  50.7043070  65.9050841  42.8425929
  51.2580881  66.4614995  44.1370466  40.4981660  65.4507714  27.9846247
  40.6469781  66.1343178  27.3312919  41.3048104  65.4312804  28.4995702
  53.1163598  65.1916110  40.9396179  52.8248407  65.5546090  41.7759640
  52.5035730  64.4783118  40.7609511  38.2534293  61.4772891  28.9907316
  38.0080335  60.5735221  29.1887526  38.4230208  61.4790042  28.0486794
  37.5229941  57.2101249  26.4893477  36.8299186  57.2845604  25.8333513
  37.2781693  56.4461593  27.0114994  43.9977066  67.9455844  25.4557994
  43.4251033  68.5646031  25.0028466  44.5709859  68.4955206  25.9897916
  47.2174325  68.2292994  26.5866576  48.1504999  68.1638556  26.7899452
  47.1297538  69.0649261  26.1281109  49.8462342  67.5458865  23.5470524
  49.7675974  67.2118728  24.4406282  50.6672009  68.0380633  23.5461996
  44.3823864  59.2816657  22.7974047  45.3282969  59.1522865  22.8662465
  44.0038109  58.5431319  23.2743475  42.5666781  57.2066633  22.7328932
  41.6598237  56.9099746  22.8091645  42.8442762  56.9096452  21.8663218
  41.3365566  54.0653569  22.8740911  42.1984730  54.3908467  23.1336728
  41.5215910  53.2785065  22.3613977  36.2807331  69.6789937  34.1603927
  36.1461799  68.9190338  33.5941925  35.8639393  70.4030836  33.6932716
  47.4166294  64.8626860  23.1680502  48.1202144  65.0676863  23.7838158
  46.6928943  65.4303622  23.4329586  39.4376457  70.5759254  34.3722370
  39.3208841  71.5204686  34.2701060  38.6168903  70.2732815  34.7608169
  49.3252991  65.3009389  25.2178962  50.1598595  64.8690588  25.0356437
  49.1637334  65.1291403  26.1455857  42.2895009  51.3049612  26.1620620
  42.2773679  52.2491452  26.3188891  43.1818431  51.1219757  25.8680081
  40.4630971  71.2287516  37.5878298  41.3658218  71.2611126  37.9044793
  40.2368341  70.2987966  37.6024634  42.2184573  69.9818502  34.2488377
  41.2680204  69.9820364  34.1352749  42.5217059  69.2351237  33.7324411
  57.9537266  75.8179040  35.3134139  58.5915676  75.6985788  34.6097479
  57.8358109  76.7659884  35.3722091  54.7626973  75.7706469  35.2495664
  54.4245484  75.6547533  34.3616199  55.6316741  75.3697634  35.2296670
  50.6213788  77.6241945  31.2392555  50.0578654  77.5331882  30.4708842
  50.5066183  76.8041849  31.7195047  55.2446756  76.9241320  41.2081869
  55.2335396  76.5294119  40.3362373  55.4067395  76.1907393  41.8015641
  48.1678220  79.1193137  34.0776775  48.9599512  78.7783961  33.6623074
  48.4074871  79.2288112  34.9978928  56.2013347  81.2912913  26.5507020
  55.5501327  81.8766993  26.1641033  56.9957710  81.8219108  26.6102057
  50.1268974  78.3802050  26.9494154  50.8999850  77.8331037  26.8107030
  50.4794373  79.2446299  27.1608615  51.9654017  79.7078432  40.1561053
  51.6743883  80.6124063  40.0407720  52.6011001  79.7494960  40.8705123
  52.8910224  77.0855281  36.7462413  53.4873796  76.8611303  36.0319376
  52.9485195  76.3440026  37.3487861  52.4635252  74.5394716  24.5812604
  52.7160773  74.0176237  23.8196067  51.5259811  74.3760861  24.6839287
  57.5078535  73.5430494  32.3887347  58.2941624  73.1249917  32.0377764
  57.7717239  74.4476587  32.5568995  57.6788612  78.9803345  27.0876004
  57.0434445  79.0537971  27.7996908  57.3486019  79.5696943  26.4095083
  62.9086962  73.4805728  33.2920326  63.6412134  72.9104944  33.5258155
  62.1526318  73.0927328  33.7326831  52.1831541  76.4422822  26.7836979
  52.0667799  75.7667725  27.4518063  52.2933801  75.9555196  25.9669132
  54.5263082  75.9032969  30.4883668  54.1621289  75.3763590  31.1996589
  55.3830198  75.5131438  30.3150153  60.4312382  67.1927302  37.7514934
  60.0995707  68.0622713  37.5276149  59.8357996  66.8763586  38.4308965
  54.1668569  70.9322869  25.4845017  54.3342971  71.8003105  25.8515488
  53.9765738  71.0950150  24.5606306  56.9243902  79.3939848  37.1510847
  56.6244625  80.2964886  37.0426654  56.5794961  79.1272031  38.0032000
  50.3756383  75.8453644  33.1847551  49.4506880  75.7129859  33.3925243
  50.6240797  76.6247864  33.6817494  60.3241046  71.9122388  34.8308284
  59.4157923  71.8437796  34.5367045  60.2728642  72.3894333  35.6590110
  54.1457790  73.3880526  26.4691683  54.0257415  73.8337577  27.3077164
  53.4510378  73.7365844  25.9105221  47.7365194  75.4886918  34.0191340
  47.8657576  75.7421397  34.9330752  47.0562646  76.0814626  33.6995995
  51.9064682  86.1584168  30.1181815  51.8288711  87.1091993  30.1970295
  51.3026325  85.8130040  30.7756741  54.3981912  73.3312033  42.7743181
  53.6215246  73.8905954  42.7646046  55.0372475  73.8168816  43.2958052
  62.1902692  70.1138826  36.6086158  61.5477072  70.4071359  35.9625953
  61.6857621  69.9991747  37.4139355  59.8442856  73.8601999  27.2972017
  60.7560712  74.0929386  27.1219715  59.3352503  74.4439044  26.7347096
  52.6528284  76.1397487  42.3361148  53.3942968  76.6782531  42.0595972
  51.9465269  76.7663776  42.4932700  58.1283623  78.2826627  40.9333310
  58.5366979  77.8409038  40.1887942  57.4060885  77.7079255  41.1867503
  54.4814694  73.2199234  38.3066867  55.3275889  73.6438648  38.4501516
  54.4213331  72.5632858  39.0005430  58.4512438  78.8427818  34.6885599
  57.8221301  79.0073532  33.9861667  58.0638100  79.2569427  35.4596563
  62.3301670  79.7782256  32.0429963  61.6452708  80.1581157  31.4926996
  62.4145519  80.3877582  32.7761910  57.6314139  70.8803602  39.9648041
  57.3875071  71.6345663  39.4282316  57.9074069  71.2588950  40.7995288
  59.5852602  77.4242215  38.6425306  59.7969497  78.0673975  37.9659687
  59.5382350  76.5904531  38.1747236  57.1878831  70.0360035  35.5461878
  56.3263310  70.3341289  35.8378616  57.2141265  70.2530434  34.6142911
  54.0040400  78.5802226  31.9535684  54.4678746  78.8589929  31.1640306
  53.7397198  77.6785671  31.7708775  50.8964481  78.1273707  34.8915447
  51.4665838  78.5560976  34.2532932  51.4872593  77.8456292  35.5899633
  52.9409286  74.7025378  28.7625249  53.6433329  75.1546422  29.2299175
  52.6089915  74.0609197  29.3905142  51.3889648  73.2937135  43.1376458
  50.7588308  73.9753416  43.3711855  51.2825735  73.1820217  42.1929597
  46.6834620  72.9608931  34.0642383  45.8933674  73.2166460  33.5882493
  47.1745867  73.7757269  34.1694423  60.6998430  80.3014170  36.8147663
  61.5215873  79.8994357  36.5330345  60.6960832  80.1982404  37.7663779
  48.6349365  73.3253510  31.0225859  47.8380529  73.4372204  31.5409355
  48.4074958  73.6640162  30.1566750  54.4655033  79.8498213  38.9708374
  54.5299466  80.3118621  39.8066546  53.7565957  79.2195578  39.0990684
  44.9672323  73.2139421  36.4957373  45.2180361  74.0986431  36.7614949
  45.5031871  73.0344023  35.7232465  68.7904423  76.6452919  33.1632635
  68.0368131  76.0760317  33.0076639  68.9251964  76.6115583  34.1103270
  54.1803051  81.5166321  28.8387354  54.0448725  82.3617857  29.2672202
  54.7212863  81.7185599  28.0753288  47.6332448  79.0341759  29.4115279
  48.1456969  79.8285009  29.5620844  48.2855161  78.3368049  29.3448881
  49.4427333  82.1507515  31.4938033  49.6193961  83.0725480  31.3059016
  50.2384166  81.8365934  31.9232412  53.5838351  69.0115780  43.0921966
  54.3248065  69.6122933  43.0126429  53.8156274  68.2693418  42.5340009
  48.7279689  74.1972147  41.3700196  48.6133204  73.2957404  41.6707295
  47.8724207  74.4435844  41.0185012  55.8071527  82.1389887  42.9687696
  55.3635381  81.3526266  42.6508601  56.4688741  82.3269038  42.3031587
  50.5658648  83.6685689  37.4948375  51.1166073  83.5402752  36.7225369
  49.7270124  83.9680578  37.1443268  57.9052765  82.4192687  40.9969098
  57.8871240  83.2401568  40.5049367  58.8272685  82.2946763  41.2219239
  54.3625819  79.9336817  41.8392606  54.8954156  79.1725105  41.6091914
  53.8339900  79.6410469  42.5816761  45.5981365  77.3630413  30.1874850
  46.4356587  77.7727422  29.9708558  45.7759633  76.4229855  30.1575044
  57.4945797  75.0305494  25.8758683  56.9792420  75.8010099  26.1147070
  57.2223105  74.3570630  26.4991744  55.0792908  69.8755195  30.9343921
  54.2234504  69.4862045  30.7549560  55.4919860  69.9547156  30.0743707
  56.6092055  67.4101538  35.3335481  56.1056850  67.3731673  34.5203286
  56.9022661  68.3194281  35.3932138  52.8534940  67.4940268  34.3401663
  53.7187937  67.2983076  33.9807552  52.9212449  67.2650619  35.2671020
  62.4680071  77.7837849  27.8111856  61.6909514  77.4449008  27.3667018
  63.1471552  77.7890472  27.1366821  57.2832100  72.9032586  27.7018464
  56.9782236  73.2178735  28.5528607  58.2362542  72.9814006  27.7445797
  55.7278532  79.0622809  29.3511418  55.1999894  78.3275569  29.0384655
  55.2266035  79.8397486  29.1051386  60.7071378  77.2571830  34.4678464
  60.0495052  77.9471091  34.5558593  61.5111777  77.6468262  34.8112451
  50.4597260  69.7242476  31.7118030  51.0341011  69.5017657  30.9791223
  51.0468242  69.7931170  32.4646631  59.5176837  75.6116203  32.5182406
  60.0308719  76.2446194  33.0204116  60.1678061  75.0117398  32.1525766
  50.7866847  71.7546937  25.7313915  49.9504159  72.0921623  26.0523190
  50.6471616  71.6195916  24.7941052  52.7619927  66.5983725  30.4393099
  52.1084340  66.2832742  29.8149714  52.7200401  65.9759465  31.1652922
  53.8731132  76.8803020  22.3546391  52.9658194  76.6492273  22.5537540
  54.3702164  76.0840639  22.5420373  56.7799211  85.5900527  25.2743077
  56.1060910  85.8932224  25.8828035  57.1665033  86.3929607  24.9248534
  55.9957668  73.0865658  34.7640747  55.0780229  73.3080605  34.6062435
  56.4117811  73.1611969  33.9052454  56.7792715  74.4857074  29.8943427
  57.5264534  74.9978471  29.5850549  57.0484305  74.1641126  30.7547820
  55.0519366  76.9815614  26.8770381  54.1430585  76.6974647  26.9742851
  55.0814449  77.4014693  26.0173688  60.2838633  80.5922204  30.6461549
  59.8300960  79.7513114  30.7026739  59.6532600  81.2283602  30.9836329
  59.2271553  71.5214190  31.8762216  58.4894309  71.0091576  32.2072459
  59.4798326  71.0814572  31.0645493  58.7271572  82.4298701  31.5811367
  59.0194547  82.9903758  30.8623733  59.2370193  82.7227262  32.3364526
  59.3283180  64.2990442  32.4703985  59.6342057  63.4387805  32.1829901
  60.0535785  64.8908062  32.2702979  45.6207536  74.7021129  30.8585583
  45.4231936  74.1090489  30.1336650  45.0654200  74.3973339  31.5761522
  53.6004260  74.5944235  32.9780177  53.6552869  73.6418071  32.9022653
  52.7895462  74.7503674  33.4621475  54.7495453  78.5224358  24.2158460
  54.3114883  77.8060217  23.7564097  55.4905894  78.7500473  23.6543551
  51.5396620  73.2121295  30.7370555  50.7264485  73.5115465  31.1435748
  52.0355614  72.8176984  31.4545038  53.6905197  83.2079052  32.6704820
  53.6481376  83.4339898  31.7413352  54.6067896  82.9742426  32.8190621
  57.1370831  73.6763119  39.5685449  57.4920219  73.9034592  40.4279915
  57.7842962  74.0081496  38.9462705  62.8668568  76.7981555  30.2734778
  62.7286467  76.9883151  29.3455968  62.5104787  77.5600938  30.7302829
  51.0310694  70.7839650  36.3531790  51.6710074  70.6428409  35.6554754
  50.1988225  70.4974164  35.9770392  62.8937948  78.8658082  35.2846050
  63.3274454  78.7733371  36.1329104  63.6069528  78.8415583  34.6466066
  51.8070998  80.0842081  32.4666783  52.6011597  79.5892401  32.2649358
  51.0962691  79.5559944  32.1034488  56.6265843  82.4660176  36.8179150
  56.6802865  83.0351113  37.5856866  55.7580624  82.6362061  36.4533188
  48.1153762  74.2285162  28.5426535  47.1851350  74.1669618  28.7596498
  48.2111234  73.7061115  27.7463177  48.0339311  70.7539975  31.1304777
  48.2946128  71.6685309  31.0213938  48.8556483  70.2864418  31.2801390
  49.5064236  72.1677732  38.3003602  50.1787289  71.9595095  37.6516251
  48.6794023  71.9699818  37.8608834  63.7553497  78.9081783  37.8178935
  63.9489387  79.8127593  38.0638210  63.6554115  78.4489202  38.6517520
  55.4089808  68.7939673  40.3169263  54.7617723  69.4929623  40.2233739
  56.1790823  69.2275817  40.6845511  58.8168606  79.0588526  43.3919816
  58.6654112  78.8299077  42.4749900  58.8073285  80.0159127  43.4051161
  55.5853942  76.6320438  38.3766082  56.5146002  76.7831598  38.2035050
  55.1644972  76.7204459  37.5214729  54.3842274  80.6571103  36.1464620
  54.2453360  80.2889887  37.0190558  53.5956870  81.1718742  35.9748578
  54.9790426  85.7580199  27.4890156  55.1542182  85.2868242  28.3035779
  54.2923214  86.3845965  27.7171417  55.9347489  80.0352705  33.5353458
  55.5997322  79.9953475  34.4311108  55.4351435  79.3697421  33.0623868
  49.9091733  75.4420335  39.0606039  49.7711531  74.7100574  39.6617578
  50.8196657  75.3529236  38.7790227  58.8706681  77.3808740  23.8090517
  58.2535852  76.6555568  23.7123570  58.4023169  78.1418100  23.4657592
  52.5374034  75.1540295  38.5489718  53.2473653  74.5133487  38.5076337
  52.4943342  75.4053190  39.4715899  60.5260813  82.0907648  41.4696298
  60.4673359  81.4066868  40.8026881  60.9280331  82.8326638  41.0176924
  51.2502968  72.1405513  40.3685358  50.7140325  71.6896251  41.0206954
  50.6619676  72.2751422  39.6255822  49.5451511  88.9069562  34.2630017
  49.7848110  89.5388086  34.9409035  48.7020708  88.5557602  34.5495376
  50.6605227  71.5994164  22.9311822  49.7834693  71.4782965  22.5674068
  51.1362980  70.8080242  22.6790710  60.5278220  80.0547232  39.7010277
  59.6404999  79.7173154  39.8236676  61.0976771  79.3230263  39.9379043
  42.1807367  76.3871324  33.0253329  42.8678407  76.0733054  32.4374344
  42.0255496  77.2912688  32.7520580  46.9842089  71.2761520  37.4538352
  46.9000278  70.6687190  36.7188762  46.1624796  71.7670539  37.4547849
  54.0579373  84.7148684  36.6671521  53.9849545  85.5203656  37.1790825
  53.6156766  84.9140650  35.8419542  53.8469153  83.9520454  30.1774342
  53.0636675  84.4942135  30.2712567  54.5461898  84.4694434  30.5768583
  57.1565803  69.7615084  32.8208548  57.6534503  69.0085046  32.5009618
  56.3852785  69.7979401  32.2551757  65.0095560  75.4655449  34.4626839
  64.9985437  76.3480165  34.0920772  64.1412940  75.1127000  34.2681376
  56.5178057  84.6135518  38.8229679  57.2306029  85.2482983  38.7505581
  56.0268085  84.7099384  38.0069681  58.2395584  78.5186771  30.3946971
  57.3051862  78.6388234  30.2251675  58.4172252  77.6159238  30.1306981
  53.7400772  71.9032467  32.5480232  53.3698559  71.3503507  33.2361138
  54.2359864  71.2990600  31.9955232  61.6268135  74.3604090  30.9297005
  62.0928587  75.1932082  30.8557308  62.0775636  73.8949072  31.6342264
  51.5689970  82.3629962  39.6435250  52.2699430  82.9966445  39.7964644
  51.0985085  82.7044693  38.8830889  59.6944366  80.7047912  27.9283157
  59.9704210  80.5904506  28.8377031  58.8248865  80.3065397  27.8895330
  59.5984798  66.7284677  34.9687906  58.6847878  66.9588904  35.1370113
  60.0277899  66.8123121  35.8201939  59.3691256  74.9174569  37.4687800
  58.7162707  75.1650477  36.8140253  59.7471636  74.1038708  37.1350278
  56.3298430  84.9534263  31.5715971  56.5120825  84.1355918  32.0343723
  57.1531416  85.1701955  31.1340861  56.6640596  83.8802448  28.8331019
  57.1928362  83.3694902  28.2201181  56.9268815  83.5644978  29.6976552
  55.4178829  75.6594380  43.9553838  54.7419466  75.5588510  44.6256213
  56.2406463  75.5033594  44.4189835  47.1657688  81.8966317  36.5766353
  47.7511125  81.1510005  36.7094257  46.9682527  82.2070274  37.4603017
  50.0196344  84.9317564  31.5928795  49.3506719  85.4163692  31.1092835
  49.8809213  85.1786785  32.5072174  41.7575343  74.4671917  35.2970796
  41.7959443  73.9335508  36.0907914  41.2515636  73.9407123  34.6781773
  54.1601612  86.9661308  38.1911453  54.7119920  87.1292929  38.9560539
  54.5007806  87.5565746  37.5191478  49.1366105  69.3136458  38.7933338
  49.2007432  70.1751289  38.3810736  49.0733226  68.7010459  38.0605697
  48.6118378  71.3859590  42.4406372  49.2390417  71.0036668  43.0543897
  47.7546297  71.1673792  42.8062065  59.0112487  81.7922565  44.0460108
  59.5552391  82.4052524  43.5515063  58.4299331  82.3502144  44.5627121
  45.3883921  73.1936019  28.3724727  45.6837362  72.2846698  28.3191781
  44.4871957  73.1723759  28.0505730  57.2970000  84.9143283  35.1775136
  57.1721139  84.1133023  34.6686081  57.9549091  85.4089477  34.6889106
  48.9178168  71.2692016  34.3552276  48.1964754  71.8827984  34.2159749
  49.7071424  71.8049781  34.2768922  59.3604908  82.7152303  36.8054686
  58.4135243  82.5957655  36.7333012  59.7087681  81.8274802  36.8880947
  51.7204481  68.6046442  40.6292928  52.2438883  68.8508739  41.3919237
  51.5016815  69.4366477  40.2096065  47.1171762  70.8750117  28.4964052
  46.7884468  69.9947496  28.3139158  47.4711133  70.8197786  29.3840442
  56.3651341  82.5105020  33.0059038  56.2176304  81.5821727  33.1866608
  57.1904835  82.5325110  32.5216113  50.2313585  71.1623087  28.8639530
  50.5709658  71.6909008  28.1418138  50.6785706  71.5003493  29.6398097
  59.9685463  83.3333578  34.0923911  60.8932011  83.1276440  33.9548362
  59.8000766  83.0849980  35.0013252  52.9257026  69.5460138  38.3142598
  52.5853847  68.7467951  38.7163278  52.2196033  69.8461848  37.7419431
  53.5773498  66.6309450  36.7669921  54.3999567  66.1569928  36.6448812
  53.8211562  67.4099934  37.2668607  52.2181733  69.6597708  27.0632823
  52.9390095  70.0378961  26.5596540  51.5947037  70.3786585  27.1667801
  56.3612856  70.3642857  27.9991155  56.5776470  71.2467495  27.6979983
  55.8806923  69.9729071  27.2696797  51.1012077  73.3228571  34.5761900
  50.9556658  73.6368874  35.4686181  50.6237281  73.9413471  34.0232798
  52.9608460  70.3131119  34.6242789  52.9470029  69.4172212  34.2875087
  53.6780888  70.3201782  35.2581075  54.8134591  70.7468459  36.6695917
  54.5552368  71.6685529  36.6680247  54.2819631  70.3498893  37.3596381
  59.7580779  83.8519246  29.4486002  59.9317657  83.2865668  28.6959855
  60.2509670  84.6520141  29.2665492  45.5757739  75.8633915  37.5149561
  45.0311207  76.6393723  37.6469835  46.4537089  76.2104719  37.3568682
  52.3645356  69.1945499  29.8930359  52.4861267  68.2662145  30.0921247
  52.0747398  69.2084185  28.9808675  55.2336546  66.8800409  33.0297079
  55.2558243  66.9439742  32.0749059  55.6504605  66.0404918  33.2237585
  65.6120170  76.6155669  31.0676302  66.0551316  75.8662994  30.6695425
  64.7346681  76.6065805  30.6850034  60.7455952  83.1686010  26.5482900
  61.4406856  83.7892703  26.7670215  61.0879102  82.3181362  26.8235278
  46.3623761  74.9903811  40.4079718  45.6205497  75.1386447  40.9944348
  46.0416505  75.2512077  39.5446467  62.6447375  80.6185716  28.0770231
  63.1698699  80.9572989  27.3519551  62.5569727  79.6832731  27.8933366
  54.3067424  84.5319789  40.2060108  54.6154550  84.2868936  41.0782807
  55.1042906  84.7366428  39.7178978  54.3288036  86.6857699  32.4365484
  53.8893026  86.1934078  33.1298341  55.0796153  86.1430667  32.1957560
  46.8080375  82.8769240  32.4390112  47.6338395  82.5773012  32.0588756
  46.4574427  82.1076862  32.8879901  51.7761908  82.2295708  34.5087786
  51.1541917  81.5666413  34.2090014  52.4466775  82.2556840  33.8261434
  45.0088980  80.7955566  33.3979046  44.1720888  80.3677741  33.2163047
  44.9812625  80.9888010  34.3349837  51.8486435  70.7077496  44.1020292
  51.8974591  71.5839619  43.7198062  52.3908949  70.1654889  43.5291935
  62.3341281  81.2518619  43.3821429  61.5436825  81.2342758  42.8425929
  62.0974636  81.7906913  44.1370466  62.4539156  78.1011086  40.6954158
  62.5037161  77.9361093  41.6369680  62.3453079  77.2338345  40.3052038
  51.3375415  80.7799632  27.9846247  51.4863535  81.4635096  27.3312919
  52.1441858  80.7604722  28.4995702  59.7442918  74.0842014  42.0113464
  60.6452781  73.9448479  41.7197462  59.8190893  74.2496469  42.9511642
  54.0785724  71.4608869  40.8566651  53.2089033  71.7542435  40.5849239
  54.3145204  72.0449314  41.5773914  63.9557353  80.5208027  40.9396179
  63.6642161  80.8838008  41.7759640  63.3429484  79.8075036  40.7609511
  65.1553035  78.0860907  33.4598749  65.9899927  78.5250711  33.6236310
  65.2912164  77.6099560  32.6406995  62.2044541  75.6440642  39.4076237
  62.6798663  75.8368288  38.5995089  61.2810106  75.6999828  39.1619621
  49.0928048  76.8064809  28.9907316  48.8474090  75.9027139  29.1887526
  49.2623962  76.8081960  28.0486794  56.7824758  67.6788486  38.3732071
  57.3006701  68.4149512  38.0478560  56.4279890  67.9852479  39.2078830
  48.3623695  72.5393167  26.4893477  47.6692940  72.6137522  25.8333513
  48.1175447  71.7753510  27.0114994  57.0337352  64.0988768  33.8932968
  57.3139105  63.4311957  34.5193394  57.8187959  64.2917864  33.3807632
  54.8370820  83.2747762  25.4557994  54.2644787  83.8937949  25.0028466
  55.4103614  83.8247124  25.9897916  60.9046210  72.5206402  37.6404543
  61.8563633  72.6204500  37.6616767  60.7349660  71.7284671  38.1502627
  58.9260590  69.6061985  37.8263944  58.3310522  69.8866998  37.1310432
  58.6410286  70.0955886  38.5980685  58.0568080  83.5584912  26.5866576
  58.9898753  83.4930474  26.7899452  57.9691293  84.3941179  26.1281109
  60.6856097  82.8750782  23.5470524  60.6069728  82.5410646  24.4406282
  61.5065763  83.3672550  23.5461996  63.3834288  75.7412522  36.7546842
  63.3510608  74.8028522  36.9406526  63.9934911  75.8196558  36.0212667
  55.2217619  74.6108575  22.7974047  56.1676723  74.4814783  22.8662465
  54.8431864  73.8723237  23.2743475  63.5328776  72.5323565  36.8005126
  63.0167825  71.7482022  36.6135055  64.4168725  72.2042282  36.9651645
  61.1939503  66.2764581  32.7600938  60.9964324  65.9679669  33.6444270
  61.8039209  67.0026220  32.8898868  69.2010838  76.8028529  35.8952879
  69.9314226  76.5413817  36.4560583  68.5917783  76.0657251  35.9354947
  67.2826135  74.9436391  36.4927330  66.5559298  74.8092356  35.8843822
  66.8673422  75.2513220  37.2984049  55.1056311  78.6626321  44.2574704
  56.0259321  78.8404920  44.4514750  55.0705894  77.7182366  44.1054403
  53.4060536  72.5358551  22.7328932  52.4991991  72.2391664  22.8091645
  53.6836517  72.2388369  21.8663218  44.3238476  73.8564915  33.1827978
  44.0041261  73.0030223  32.8902352  43.7771904  74.0713493  33.9385945
  48.1018384  76.5727356  36.8997485  48.3204394  77.5044463  36.9185518
  48.5144158  76.2135330  37.6852289  55.0222602  67.0795441  28.8873173
  54.2123330  66.7342526  29.2628419  55.7107019  66.7702985  29.4760785
  56.9513150  66.1573488  30.5097470  57.5044188  66.5768941  31.1687493
  57.1883236  65.2309236  30.5520426  52.9746249  72.1460561  46.2900234
  52.8742976  73.0954918  46.2212325  52.7567791  71.8178800  45.4176304
  52.1759320  69.3945486  22.8740911  53.0378484  69.7200385  23.1336728
  52.3609665  68.6076982  22.3613977  44.1926736  77.4767826  35.1521100
  43.4990208  77.0621779  34.6391054  44.9399727  77.5188363  34.5554519
  60.3291957  68.2674013  30.0176134  59.7490626  68.9258817  29.6354186
  60.0627890  67.4451357  29.6063551  58.7795523  67.6679071  32.2197454
  59.2795302  67.7795605  31.4111773  59.4231131  67.3640123  32.8598263
  52.8377519  75.5757700  45.1065295  52.3544601  76.3758060  45.3129184
  52.9238458  75.5865645  44.1532739  46.1063479  77.4086080  33.0287115
  46.0834167  77.5073767  32.0768998  46.4164115  78.2551231  33.3504281
  48.7650857  79.4662235  37.1433729  49.7194110  79.4346177  37.0763661
  48.5663380  79.0052859  37.9583955  49.3550239  78.0363351  39.7104527
  50.1743128  78.5307430  39.7339364  49.6287046  77.1195319  39.6822094
  59.1116835  70.4274103  29.0732482  58.2242690  70.7123754  28.8552677
  59.5270824  70.2667867  28.2259759  62.4631371  70.4520624  32.7886821
  63.2391761  70.9417077  33.0611438  61.7379505  70.8778678  33.2458691
  64.9003930  71.1648243  33.8460762  65.4948421  70.9243979  33.1354070
  64.9730513  70.4455374  34.4734298  47.1201085  85.0081854  34.1603927
  46.9855553  84.2482255  33.5941925  46.7033148  85.7322754  33.6932716
  58.2560048  80.1918778  23.1680502  58.9595899  80.3968780  23.7838158
  57.5322697  80.7595540  23.4329586  59.0857859  75.9428639  29.2882772
  59.0293060  76.3997191  28.4490405  59.6386201  75.1819324  29.1105615
  62.8962665  71.7318371  30.1132892  62.6399599  71.3315007  30.9441100
  62.2715533  72.4462165  29.9883031  67.2075002  74.4714444  32.6204183
  66.6474560  74.5407634  33.3935745  66.6018506  74.2955429  31.9003680
  50.2770211  85.9051171  34.3722370  50.1602595  86.8496604  34.2701060
  49.4562658  85.6024733  34.7608169  60.1646746  80.6301307  25.2178962
  60.9992350  80.1982506  25.0356437  60.0031089  80.4583321  26.1455857
  59.8192638  77.1333420  26.5835302  59.7641442  76.9677692  25.6423746
  59.1938693  77.8409453  26.7397491  44.6085153  72.3701485  40.4096724
  45.2544017  71.8600439  40.8983949  44.4002304  73.1070166  40.9840149
  57.1338545  79.4382332  45.9088864  58.0029705  79.6122985  45.5475499
  56.6545297  80.2576749  45.7864594  53.1288763  66.6341529  26.1620620
  53.1167433  67.5783369  26.3188891  54.0212185  66.4511675  25.8680081
  51.3024725  86.5579433  37.5878298  52.2051972  86.5903043  37.9044793
  51.0762095  85.6279884  37.6024634  53.0578327  85.3110420  34.2488377
  52.1073958  85.3112281  34.1352749  53.3610814  84.5643154  33.7324411
  56.9440883  63.2284306  30.4166557  56.1773279  62.6742793  30.5623239
  57.3551588  63.3006175  31.2780708  48.9482644  69.5169102  44.5071738
  49.8114106  69.1605907  44.7175063  48.3748055  69.1782997  45.1947142
  68.7931021  91.1470958  35.3134139  69.4309431  91.0277706  34.6097479
  68.6751864  92.0951802  35.3722091  65.6020727  91.0998386  35.2495664
  65.2639239  90.9839451  34.3616199  66.4710495  90.6989551  35.2296670
  61.4607543  92.9533863  31.2392555  60.8972408  92.8623800  30.4708842
  61.3459938  92.1333767  31.7195047  66.0840510  92.2533238  41.2081869
  66.0729151  91.8586036  40.3362373  66.2461150  91.5199311  41.8015641
  59.0071975  94.4485054  34.0776775  59.7993267  94.1075879  33.6623074
  59.2468625  94.5580029  34.9978928  67.0407102  96.6204830  26.5507020
  66.3895081  97.2058911  26.1641033  67.8351464  97.1511025  26.6102057
  60.9662729  93.7093968  26.9494154  61.7393605  93.1622955  26.8107030
  61.3188128  94.5738217  27.1608615  62.8047771  95.0370350  40.1561053
  62.5137637  95.9415981  40.0407720  63.4404756  95.0786877  40.8705123
  63.7303978  92.4147198  36.7462413  64.3267550  92.1903221  36.0319376
  63.7878950  91.6731944  37.3487861  63.3029007  89.8686634  24.5812604
  63.5554527  89.3468155  23.8196067  62.3653566  89.7052779  24.6839287
  68.3472289  88.8722412  32.3887347  69.1335379  88.4541835  32.0377764
  68.6110994  89.7768504  32.5568995  68.5182367  94.3095262  27.0876004
  67.8828200  94.3829889  27.7996908  68.1879773  94.8988861  26.4095083
  73.7480717  88.8097645  33.2920326  74.4805888  88.2396862  33.5258155
  72.9920072  88.4219246  33.7326831  63.0225295  91.7714740  26.7836979
  62.9061553  91.0959643  27.4518063  63.1327555  91.2847114  25.9669132
  65.3656836  91.2324887  30.4883668  65.0015044  90.7055508  31.1996589
  66.2223952  90.8423356  30.3150153  71.2706137  82.5219219  37.7514934
  70.9389462  83.3914630  37.5276149  70.6751750  82.2055503  38.4308965
  65.0062323  86.2614786  25.4845017  65.1736726  87.1295023  25.8515488
  64.8159492  86.4242068  24.5606306  67.7637656  94.7231765  37.1510847
  67.4638380  95.6256804  37.0426654  67.4188716  94.4563949  38.0032000
  61.2150138  91.1745562  33.1847551  60.2900634  91.0421776  33.3925243
  61.4634551  91.9539781  33.6817494  71.1634800  87.2414305  34.8308284
  70.2551678  87.1729714  34.5367045  71.1122396  87.7186250  35.6590110
  64.9851544  88.7172444  26.4691683  64.8651169  89.1629495  27.3077164
  64.2904133  89.0657762  25.9105221  58.5758949  90.8178836  34.0191340
  58.7051330  91.0713315  34.9330752  57.8956400  91.4106544  33.6995995
  62.7458436 101.4876086  30.1181815  62.6682466 102.4383911  30.1970295
  62.1420080 101.1421958  30.7756741  65.2375666  88.6603951  42.7743181
  64.4609000  89.2197871  42.7646046  65.8766229  89.1460734  43.2958052
  73.0296447  85.4430744  36.6086158  72.3870827  85.7363277  35.9625953
  72.5251375  85.3283664  37.4139355  70.6836610  89.1893917  27.2972017
  71.5954466  89.4221304  27.1219715  70.1746257  89.7730961  26.7347096
  63.4922038  91.4689404  42.3361148  64.2336723  92.0074448  42.0595972
  62.7859024  92.0955693  42.4932700  68.9677378  93.6118545  40.9333310
  69.3760734  93.1700955  40.1887942  68.2454639  93.0371172  41.1867503
  65.3208448  88.5491152  38.3066867  66.1669643  88.9730565  38.4501516
  65.2607086  87.8924776  39.0005430  69.2906193  94.1719736  34.6885599
  68.6615055  94.3365450  33.9861667  68.9031855  94.5861345  35.4596563
  73.1695424  95.1074173  32.0429963  72.4846463  95.4873075  31.4926996
  73.2539274  95.7169500  32.7761910  68.4707893  86.2095520  39.9648041
  68.2268825  86.9637581  39.4282316  68.7467824  86.5880868  40.7995288
  70.4246356  92.7534132  38.6425306  70.6363251  93.3965892  37.9659687
  70.3776104  91.9196449  38.1747236  68.0272585  85.3651953  35.5461878
  67.1657064  85.6633207  35.8378616  68.0535020  85.5822352  34.6142911
  64.8434154  93.9094144  31.9535684  65.3072500  94.1881847  31.1640306
  64.5790953  93.0077588  31.7708775  61.7358236  93.4565625  34.8915447
  62.3059593  93.8852894  34.2532932  62.3266347  93.1748210  35.5899633
  63.7803041  90.0317296  28.7625249  64.4827084  90.4838340  29.2299175
  63.4483669  89.3901115  29.3905142  62.2283402  88.6229053  43.1376458
  61.5982063  89.3045333  43.3711855  62.1219490  88.5112134  42.1929597
  57.5228374  88.2900849  34.0642383  56.7327428  88.5458377  33.5882493
  58.0139622  89.1049187  34.1694423  71.5392184  95.6306088  36.8147663
  72.3609628  95.2286275  36.5330345  71.5354587  95.5274322  37.7663779
  59.4743120  88.6545428  31.0225859  58.6774283  88.7664122  31.5409355
  59.2468712  88.9932080  30.1566750  65.3048787  95.1790131  38.9708374
  65.3693220  95.6410538  39.8066546  64.5959711  94.5487496  39.0990684
  55.8066077  88.5431339  36.4957373  56.0574116  89.4278349  36.7614949
  56.3425626  88.3635941  35.7232465  79.6298177  91.9744836  33.1632635
  78.8761885  91.4052234  33.0076639  79.7645718  91.9407501  34.1103270
  65.0196805  96.8458239  28.8387354  64.8842480  97.6909774  29.2672202
  65.5606618  97.0477516  28.0753288  61.5064145  82.9249818  45.5001710
  61.1131090  82.3716017  46.1749354  62.3230285  83.2360397  45.8908227
  58.4726203  94.3633677  29.4115279  58.9850723  95.1576927  29.5620844
  59.1248915  93.6659967  29.3448881  60.2821087  97.4799433  31.4938033
  60.4587716  98.4017398  31.3059016  61.0777921  97.1657852  31.9232412
  64.4232106  84.3407698  43.0921966  65.1641819  84.9414851  43.0126429
  64.6550029  83.5985335  42.5340009  59.5673444  89.5264065  41.3700196
  59.4526959  88.6249322  41.6707295  58.7117962  89.7727762  41.0185012
  66.6465282  97.4681805  42.9687696  66.2029136  96.6818184  42.6508601
  67.3082495  97.6560956  42.3031587  61.4052403  98.9977607  37.4948375
  61.9559828  98.8694670  36.7225369  60.5663879  99.2972496  37.1443268
  68.7446520  97.7484605  40.9969098  68.7264995  98.5693486  40.5049367
  69.6666440  97.6238680  41.2219239  65.2019574  95.2628735  41.8392606
  65.7347911  94.5017023  41.6091914  64.6733655  94.9702386  42.5816761
  68.3689269  80.3688800  37.3686248  68.0253538  81.2590442  37.2925358
  68.7368231  80.1790458  36.5055833  56.4375119  92.6922331  30.1874850
  57.2750341  93.1019339  29.9708558  56.6153387  91.7521773  30.1575044
  68.3339551  90.3597412  25.8758683  67.8186175  91.1302016  26.1147070
  68.0616860  89.6862548  26.4991744  65.9186662  85.2047112  30.9343921
  65.0628259  84.8153963  30.7549560  66.3313614  85.2839073  30.0743707
  67.4485809  82.7393456  35.3335481  66.9450605  82.7023591  34.5203286
  67.7416416  83.6486198  35.3932138  63.6928695  82.8232185  34.3401663
  64.5581692  82.6274994  33.9807552  63.7606204  82.5942537  35.2671020
  73.3073826  93.1129766  27.8111856  72.5303268  92.7740926  27.3667018
  73.9865307  93.1182389  27.1366821  68.1225855  88.2324504  27.7018464
  67.8175990  88.5470653  28.5528607  69.0756297  88.3105924  27.7445797
  66.5672286  94.3914727  29.3511418  66.0393648  93.6567487  29.0384655
  66.0659789  95.1689403  29.1051386  71.5465132  92.5863747  34.4678464
  70.8888807  93.2763009  34.5558593  72.3505532  92.9760179  34.8112451
  61.2991014  85.0534393  31.7118030  61.8734766  84.8309575  30.9791223
  61.8861997  85.1223088  32.4646631  70.3570591  90.9408120  32.5182406
  70.8702473  91.5738112  33.0204116  71.0071815  90.3409316  32.1525766
  61.6260601  87.0838854  25.7313915  60.7897913  87.4213541  26.0523190
  61.4865371  86.9487834  24.7941052  63.6013682  81.9275642  30.4393099
  62.9478094  81.6124659  29.8149714  63.5594156  81.3051383  31.1652922
  64.7124887  92.2094937  22.3546391  63.8051948  91.9784191  22.5537540
  65.2095919  91.4132557  22.5420373  67.6192966 100.9192444  25.2743077
  66.9454664 101.2224141  25.8828035  68.0058787 101.7221525  24.9248534
  66.8351422  88.4157576  34.7640747  65.9173984  88.6372523  34.6062435
  67.2511566  88.4903886  33.9052454  67.6186470  89.8148991  29.8943427
  68.3658289  90.3270389  29.5850549  67.8878059  89.4933044  30.7547820
  65.8913120  92.3107532  26.8770381  64.9824339  92.0266565  26.9742851
  65.9208204  92.7306611  26.0173688  71.1232387  95.9214122  30.6461549
  70.6694715  95.0805032  30.7026739  70.4926354  96.5575520  30.9836329
  70.0665307  86.8506108  31.8762216  69.3288064  86.3383494  32.2072459
  70.3192081  86.4106489  31.0645493  69.5665327  97.7590618  31.5811367
  69.8588301  98.3195675  30.8623733  70.0763947  98.0519179  32.3364526
  70.1676934  79.6282360  32.4703985  70.4735811  78.7679723  32.1829901
  70.8929539  80.2199980  32.2702979  56.4601290  90.0313046  30.8585583
  56.2625690  89.4382407  30.1336650  55.9047954  89.7265256  31.5761522
  64.4398014  89.9236153  32.9780177  64.4946624  88.9709989  32.9022653
  63.6289216  90.0795592  33.4621475  65.5889208  93.8516276  24.2158460
  65.1508638  93.1352135  23.7564097  66.3299649  94.0792391  23.6543551
  62.3790374  88.5413212  30.7370555  61.5658240  88.8407383  31.1435748
  62.8749368  88.1468901  31.4545038  64.5298952  98.5370969  32.6704820
  64.4875131  98.7631816  31.7413352  65.4461651  98.3034344  32.8190621
  67.9764586  89.0055037  39.5685449  68.3313973  89.2326510  40.4279915
  68.6236717  89.3373414  38.9462705  73.7062323  92.1273473  30.2734778
  73.5680221  92.3175069  29.3455968  73.3498541  92.8892856  30.7302829
  61.8704449  86.1131568  36.3531790  62.5103828  85.9720327  35.6554754
  61.0381979  85.8266081  35.9770392  73.7331702  94.1950000  35.2846050
  74.1668209  94.1025289  36.1329104  74.4463283  94.1707500  34.6466066
  62.6464753  95.4133998  32.4666783  63.4405351  94.9184319  32.2649358
  61.9356445  94.8851862  32.1034488  67.4659597  97.7952094  36.8179150
  67.5196619  98.3643030  37.5856866  66.5974379  97.9653979  36.4533188
  58.9547516  89.5577080  28.5426535  58.0245104  89.4961536  28.7596498
  59.0504988  89.0353033  27.7463177  58.8733065  86.0831893  31.1304777
  59.1339883  86.9977226  31.0213938  59.6950238  85.6156336  31.2801390
  60.3457991  87.4969650  38.3003602  61.0181044  87.2887012  37.6516251
  59.5187777  87.2991736  37.8608834  74.5947252  94.2373701  37.8178935
  74.7883142  95.1419511  38.0638210  74.4947870  93.7781120  38.6517520
  66.2483563  84.1231591  40.3169263  65.6011478  84.8221541  40.2233739
  67.0184578  84.5567735  40.6845511  69.6562361  94.3880443  43.3919816
  69.5047867  94.1590995  42.4749900  69.6467040  95.3451045  43.4051161
  66.4247697  91.9612356  38.3766082  67.3539757  92.1123516  38.2035050
  66.0038727  92.0496377  37.5214729  65.2236029  95.9863020  36.1464620
  65.0847114  95.6181805  37.0190558  64.4350625  96.5010660  35.9748578
  65.8184181 101.0872117  27.4890156  65.9935936 100.6160160  28.3035779
  65.1316969 101.7137883  27.7171417  66.7741244  95.3644623  33.5353458
  66.4391076  95.3245393  34.4311108  66.2745190  94.6989339  33.0623868
  60.7485488  90.7712253  39.0606039  60.6105286  90.0392492  39.6617578
  61.6590411  90.6821153  38.7790227  69.7100435  92.7100657  23.8090517
  69.0929606  91.9847486  23.7123570  69.2416924  93.4710018  23.4657592
  63.3767788  90.4832212  38.5489718  64.0867407  89.8425405  38.5076337
  63.3337097  90.7345107  39.4715899  71.3654567  97.4199566  41.4696298
  71.3067113  96.7358786  40.8026881  71.7674086  98.1618556  41.0176924
  62.0896722  87.4697430  40.3685358  61.5534079  87.0188169  41.0206954
  61.5013431  87.6043339  39.6255822  60.3845266 104.2361480  34.2630017
  60.6241864 104.8680004  34.9409035  59.5414462 103.8849520  34.5495376
  61.4998981  86.9286082  22.9311822  60.6228448  86.8074883  22.5674068
  61.9756734  86.1372160  22.6790710  71.3671974  95.3839150  39.7010277
  70.4798753  95.0465072  39.8236676  71.9370525  94.6522181  39.9379043
  53.0201122  91.7163241  33.0253329  53.7072161  91.4024972  32.4374344
  52.8649250  92.6204606  32.7520580  57.8235844  86.6053438  37.4538352
  57.7394032  85.9979108  36.7188762  57.0018550  87.0962456  37.4547849
  64.8973128 100.0440602  36.6671521  64.8243299 100.8495574  37.1790825
  64.4550521 100.2432568  35.8419542  64.6862907  99.2812372  30.1774342
  63.9030429  99.8234052  30.2712567  65.3855653  99.7986352  30.5768583
  67.9959558  85.0907002  32.8208548  68.4928257  84.3376964  32.5009618
  67.2246539  85.1271318  32.2551757  75.8489315  90.7947367  34.4626839
  75.8379191  91.6772083  34.0920772  74.9806694  90.4418918  34.2681376
  67.3571811  99.9427436  38.8229679  68.0699784 100.5774901  38.7505581
  66.8661840 100.0391302  38.0069681  69.0789338  93.8478689  30.3946971
  68.1445617  93.9680151  30.2251675  69.2566007  92.9451156  30.1306981
  64.5794526  87.2324385  32.5480232  64.2092314  86.6795425  33.2361138
  65.0753619  86.6282518  31.9955232  72.4661890  89.6896008  30.9297005
  72.9322342  90.5224000  30.8557308  72.9169390  89.2240990  31.6342264
  62.4083725  97.6921880  39.6435250  63.1093184  98.3258363  39.7964644
  61.9378840  98.0336611  38.8830889  70.5338121  96.0339829  27.9283157
  70.8097965  95.9196424  28.8377031  69.6642619  95.6357314  27.8895330
  70.4378552  82.0576595  34.9687906  69.5241632  82.2880822  35.1370113
  70.8671654  82.1415039  35.8201939  70.2085011  90.2466487  37.4687800
  69.5556461  90.4942394  36.8140253  70.5865391  89.4330625  37.1350278
  67.1692185 100.2826180  31.5715971  67.3514579  99.4647836  32.0343723
  67.9925171 100.4993872  31.1340861  67.5034350  99.2094365  28.8331019
  68.0322117  98.6986820  28.2201181  67.7662570  98.8936896  29.6976552
  66.2572584  90.9886298  43.9553838  65.5813221  90.8880427  44.6256213
  67.0800218  90.8325512  44.4189835  58.0051443  97.2258235  36.5766353
  58.5904880  96.4801923  36.7094257  57.8076281  97.5362191  37.4603017
  60.8590098 100.2609482  31.5928795  60.1900473 100.7455610  31.1092835
  60.7202968 100.5078702  32.5072174  52.5969098  89.7963835  35.2970796
  52.6353197  89.2627426  36.0907914  52.0909390  89.2699040  34.6781773
  64.9995367 102.2953226  38.1911453  65.5513675 102.4584847  38.9560539
  65.3401560 102.8857663  37.5191478  59.9759860  84.6428375  38.7933338
  60.0401186  85.5043206  38.3810736  59.9126980  84.0302377  38.0605697
  59.4512132  86.7151508  42.4406372  60.0784171  86.3328585  43.0543897
  58.5940051  86.4965710  42.8062065  69.8506241  97.1214483  44.0460108
  70.3946145  97.7344441  43.5515063  69.2693086  97.6794061  44.5627121
  56.2277675  88.5227937  28.3724727  56.5231116  87.6138615  28.3191781
  55.3265711  88.5015676  28.0505730  68.1363754 100.2435201  35.1775136
  68.0114893  99.4424941  34.6686081  68.7942845 100.7381394  34.6889106
  59.7571922  86.5983934  34.3552276  59.0358508  87.2119901  34.2159749
  60.5465178  87.1341698  34.2768922  70.1998662  98.0444221  36.8054686
  69.2528998  97.9249572  36.7333012  70.5481436  97.1566719  36.8880947
  62.5598236  83.9338360  40.6292928  63.0832638  84.1800657  41.3919237
  62.3410569  84.7658395  40.2096065  57.9565517  86.2042035  28.4964052
  57.6278223  85.3239414  28.3139158  58.3104888  86.1489703  29.3840442
  67.2045096  97.8396937  33.0059038  67.0570058  96.9113645  33.1866608
  68.0298589  97.8617028  32.5216113  61.0707340  86.4915004  28.8639530
  61.4103412  87.0200926  28.1418138  61.5179460  86.8295411  29.6398097
  70.8079218  98.6625496  34.0923911  71.7325765  98.4568357  33.9548362
  70.6394521  98.4141897  35.0013252  63.7650781  84.8752055  38.3142598
  63.4247601  84.0759868  38.7163278  63.0589787  85.1753766  37.7419431
  64.4167253  81.9601368  36.7669921  65.2393322  81.4861846  36.6448812
  64.6605316  82.7391851  37.2668607  63.0575487  84.9889626  27.0632823
  63.7783850  85.3670879  26.5596540  62.4340791  85.7078503  27.1667801
  67.2006610  85.6934775  27.9991155  67.4170224  86.5759413  27.6979983
  66.7200677  85.3020988  27.2696797  61.9405831  88.6520488  34.5761900
  61.7950412  88.9660791  35.4686181  61.4631035  89.2705389  34.0232798
  63.8002214  85.6423036  34.6242789  63.7863783  84.7464130  34.2875087
  64.5174642  85.6493700  35.2581075  65.6528345  86.0760376  36.6695917
  65.3946123  86.9977447  36.6680247  65.1213385  85.6790811  37.3596381
  70.5974534  99.1811164  29.4486002  70.7711411  98.6157586  28.6959855
  71.0903425  99.9812058  29.2665492  56.4151494  91.1925833  37.5149561
  55.8704962  91.9685641  37.6469835  57.2930843  91.5396637  37.3568682
  63.2039110  84.5237417  29.8930359  63.3255021  83.5954063  30.0921247
  62.9141153  84.5376102  28.9808675  66.0730301  82.2092327  33.0297079
  66.0951997  82.2731660  32.0749059  66.4898360  81.3696836  33.2237585
  76.4513925  91.9447586  31.0676302  76.8945071  91.1954912  30.6695425
  75.5740435  91.9357723  30.6850034  71.5849706  98.4977928  26.5482900
  72.2800611  99.1184621  26.7670215  71.9272856  97.6473279  26.8235278
  57.2017515  90.3195729  40.4079718  56.4599251  90.4678364  40.9944348
  56.8810260  90.5803995  39.5446467  73.4841129  95.9477633  28.0770231
  74.0092453  96.2864906  27.3519551  73.3963482  95.0124649  27.8933366
  65.1461178  99.8611707  40.2060108  65.4548305  99.6160854  41.0782807
  65.9436660 100.0658346  39.7178978  65.1681790 102.0149617  32.4365484
  64.7286780 101.5225995  33.1298341  65.9189907 101.4722584  32.1957560
  57.6474129  98.2061158  32.4390112  58.4732149  97.9064929  32.0588756
  57.2968181  97.4368780  32.8879901  62.6155662  97.5587626  34.5087786
  61.9935672  96.8958331  34.2090014  63.2860529  97.5848758  33.8261434
  55.8482734  96.1247484  33.3979046  55.0114642  95.6969658  33.2163047
  55.8206380  96.3179927  34.3349837  62.6880190  86.0369414  44.1020292
  62.7368345  86.9131537  43.7198062  63.2302704  85.4946807  43.5291935
  73.1735035  96.5810537  43.3821429  72.3830579  96.5634676  42.8425929
  72.9368390  97.1198831  44.1370466  73.2932910  93.4303004  40.6954158
  73.3430915  93.2653011  41.6369680  73.1846834  92.5630263  40.3052038
  62.1769169  96.1091549  27.9846247  62.3257290  96.7927014  27.3312919
  62.9835613  96.0896639  28.4995702  70.5836673  89.4133932  42.0113464
  71.4846536  89.2740396  41.7197462  70.6584647  89.5788386  42.9511642
  64.9179478  86.7900786  40.8566651  64.0482788  87.0834352  40.5849239
  65.1538959  87.3741231  41.5773914  74.7951107  95.8499945  40.9396179
  74.5035916  96.2129926  41.7759640  74.1823239  95.1366953  40.7609511
  75.9946790  93.4152825  33.4598749  76.8293681  93.8542629  33.6236310
  76.1305918  92.9391478  32.6406995  73.0438296  90.9732560  39.4076237
  73.5192417  91.1660206  38.5995089  72.1203861  91.0291745  39.1619621
  59.9321802  92.1356727  28.9907316  59.6867844  91.2319057  29.1887526
  60.1017717  92.1373877  28.0486794  67.6218512  83.0080403  38.3732071
  68.1400456  83.7441430  38.0478560  67.2673645  83.3144397  39.2078830
  59.2017450  87.8685084  26.4893477  58.5086695  87.9429439  25.8333513
  58.9569202  87.1045428  27.0114994  67.8731106  79.4280686  33.8932968
  68.1532860  78.7603875  34.5193394  68.6581713  79.6209781  33.3807632
  65.6764575  98.6039680  25.4557994  65.1038542  99.2229867  25.0028466
  66.2497368  99.1539041  25.9897916  71.7439965  87.8498320  37.6404543
  72.6957387  87.9496417  37.6616767  71.5743415  87.0576588  38.1502627
  69.7654344  84.9353903  37.8263944  69.1704276  85.2158916  37.1310432
  69.4804041  85.4247804  38.5980685  68.8961834  98.8876830  26.5866576
  69.8292508  98.8222391  26.7899452  68.8085047  99.7233097  26.1281109
  71.5249851  98.2042700  23.5470524  71.4463483  97.8702564  24.4406282
  72.3459518  98.6964468  23.5461996  74.2228042  91.0704439  36.7546842
  74.1904362  90.1320440  36.9406526  74.8328666  91.1488476  36.0212667
  66.0611373  89.9400492  22.7974047  67.0070478  89.8106701  22.8662465
  65.6825618  89.2015154  23.2743475  74.3722531  87.8615483  36.8005126
  73.8561579  87.0773939  36.6135055  75.2562479  87.5334199  36.9651645
  72.0333258  81.6056498  32.7600938  71.8358079  81.2971587  33.6444270
  72.6432963  82.3318137  32.8898868  80.0404592  92.1320446  35.8952879
  80.7707981  91.8705734  36.4560583  79.4311538  91.3949168  35.9354947
  78.1219889  90.2728309  36.4927330  77.3953053  90.1384274  35.8843822
  77.7067176  90.5805137  37.2984049  65.9450066  93.9918239  44.2574704
  66.8653075  94.1696838  44.4514750  65.9099649  93.0474284  44.1054403
  64.2454290  87.8650469  22.7328932  63.3385746  87.5683581  22.8091645
  64.5230271  87.5680287  21.8663218  55.1632231  89.1856832  33.1827978
  54.8435015  88.3322140  32.8902352  54.6165659  89.4005410  33.9385945
  58.9412138  91.9019273  36.8997485  59.1598148  92.8336381  36.9185518
  59.3537912  91.5427248  37.6852289  65.8616356  82.4087358  28.8873173
  65.0517084  82.0634443  29.2628419  66.5500773  82.0994902  29.4760785
  67.7906904  81.4865405  30.5097470  68.3437943  81.9060859  31.1687493
  68.0276991  80.5601153  30.5520426  63.8140004  87.4752479  46.2900234
  63.7136730  88.4246836  46.2212325  63.5961546  87.1470718  45.4176304
  63.0153075  84.7237404  22.8740911  63.8772239  85.0492302  23.1336728
  63.2003419  83.9368900  22.3613977  55.0320491  92.8059744  35.1521100
  54.3383962  92.3913696  34.6391054  55.7793482  92.8480280  34.5554519
  71.1685711  83.5965930  30.0176134  70.5884380  84.2550734  29.6354186
  70.9021644  82.7743275  29.6063551  69.6189278  82.9970988  32.2197454
  70.1189056  83.1087523  31.4111773  70.2624886  82.6932041  32.8598263
  63.6771274  90.9049618  45.1065295  63.1938355  91.7049978  45.3129184
  63.7632213  90.9157563  44.1532739  56.9457233  92.7377997  33.0287115
  56.9227921  92.8365685  32.0768998  57.2557870  93.5843148  33.3504281
  59.6044611  94.7954152  37.1433729  60.5587865  94.7638095  37.0763661
  59.4057135  94.3344776  37.9583955  60.1943993  93.3655269  39.7104527
  61.0136882  93.8599347  39.7339364  60.4680801  92.4487237  39.6822094
  69.9510589  85.7566021  29.0732482  69.0636444  86.0415671  28.8552677
  70.3664579  85.5959784  28.2259759  73.3025126  85.7812542  32.7886821
  74.0785516  86.2708994  33.0611438  72.5773260  86.2070596  33.2458691
  75.7397684  86.4940161  33.8460762  76.3342175  86.2535897  33.1354070
  75.8124268  85.7747292  34.4734298  57.9594840 100.3373772  34.1603927
  57.8249308  99.5774173  33.5941925  57.5426902 101.0614672  33.6932716
  69.0953803  95.5210696  23.1680502  69.7989653  95.7260698  23.7838158
  68.3716452  96.0887457  23.4329586  69.9251613  91.2720557  29.2882772
  69.8686815  91.7289108  28.4490405  70.4779956  90.5111241  29.1105615
  73.7356419  87.0610289  30.1132892  73.4793353  86.6606924  30.9441100
  73.1109287  87.7754083  29.9883031  78.0468757  89.8006362  32.6204183
  77.4868315  89.8699551  33.3935745  77.4412260  89.6247347  31.9003680
  61.1163966 101.2343089  34.3722370  60.9996350 102.1788521  34.2701060
  60.2956412 100.9316651  34.7608169  71.0040500  95.9593225  25.2178962
  71.8386104  95.5274423  25.0356437  70.8424843  95.7875238  26.1455857
  70.6586393  92.4625338  26.5835302  70.6035196  92.2969609  25.6423746
  70.0332448  93.1701371  26.7397491  55.4478908  87.6993402  40.4096724
  56.0937771  87.1892356  40.8983949  55.2396059  88.4362084  40.9840149
  67.9732300  94.7674250  45.9088864  68.8423459  94.9414902  45.5475499
  67.4939051  95.5868667  45.7864594  63.9682518  81.9633447  26.1620620
  63.9561188  82.9075287  26.3188891  64.8605940  81.7803592  25.8680081
  62.1418480 101.8871351  37.5878298  63.0445727 101.9194961  37.9044793
  61.9155850 100.9571802  37.6024634  63.8972082 100.6402337  34.2488377
  62.9467713 100.6404199  34.1352749  64.2004568  99.8935072  33.7324411
  67.7834637  78.5576224  30.4166557  67.0167033  78.0034710  30.5623239
  68.1945342  78.6298092  31.2780708  59.7876398  84.8461019  44.5071738
  60.6507860  84.4897824  44.7175063  59.2141809  84.5074914  45.1947142
  79.6324775 106.4762876  35.3134139  80.2703185 106.3569623  34.6097479
  79.5145618 107.4243720  35.3722091  76.4414482 106.4290304  35.2495664
  76.1032993 106.3131369  34.3616199  77.3104250 106.0281469  35.2296670
  72.3001297 108.2825780  31.2392555  71.7366163 108.1915717  30.4708842
  72.1853692 107.4625685  31.7195047  76.9234265 107.5825156  41.2081869
  76.9122905 107.1877954  40.3362373  77.0854904 106.8491228  41.8015641
  69.8465729 109.7776972  34.0776775  70.6387021 109.4367797  33.6623074
  70.0862379 109.8871947  34.9978928  77.8800856 111.9496748  26.5507020
  77.2288836 112.5350828  26.1641033  78.6745219 112.4802943  26.6102057
  71.8056483 109.0385885  26.9494154  72.5787359 108.4914872  26.8107030
  72.1581882 109.9030135  27.1608615  73.6441526 110.3662267  40.1561053
  73.3531392 111.2707898  40.0407720  74.2798510 110.4078795  40.8705123
  74.5697733 107.7439116  36.7462413  75.1661305 107.5195138  36.0319376
  74.6272704 107.0023861  37.3487861  74.1422761 105.1978551  24.5812604
  74.3948282 104.6760073  23.8196067  73.2047320 105.0344697  24.6839287
  79.1866044 104.2014330  32.3887347  79.9729133 103.7833753  32.0377764
  79.4504748 105.1060422  32.5568995  79.3576121 109.6387180  27.0876004
  78.7221954 109.7121807  27.7996908  79.0273528 110.2280779  26.4095083
  84.5874471 104.1389563  33.2920326  85.3199643 103.5688780  33.5258155
  83.8313827 103.7511163  33.7326831  73.8619050 107.1006657  26.7836979
  73.7455308 106.4251561  27.4518063  73.9721310 106.6139031  25.9669132
  76.2050591 106.5616804  30.4883668  75.8408798 106.0347425  31.1996589
  77.0617707 106.1715273  30.3150153  82.1099891  97.8511137  37.7514934
  81.7783216  98.7206548  37.5276149  81.5145505  97.5347421  38.4308965
  75.8456078 101.5906704  25.4845017  76.0130480 102.4586940  25.8515488
  75.6553247 101.7533986  24.5606306  78.6031411 110.0523683  37.1510847
  78.3032134 110.9548722  37.0426654  78.2582470 109.7855866  38.0032000
  72.0543892 106.5037480  33.1847551  71.1294389 106.3713694  33.3925243
  72.3028306 107.2831699  33.6817494  82.0028555 102.5706223  34.8308284
  81.0945432 102.5021632  34.5367045  81.9516151 103.0478168  35.6590110
  75.8245299 104.0464362  26.4691683  75.7044924 104.4921412  27.3077164
  75.1297887 104.3949679  25.9105221  69.4152703 106.1470753  34.0191340
  69.5445085 106.4005232  34.9330752  68.7350155 106.7398461  33.6995995
  73.5852191 116.8168003  30.1181815  73.5076220 117.7675828  30.1970295
  72.9813834 116.4713876  30.7756741  76.0769420 103.9895869  42.7743181
  75.3002755 104.5489789  42.7646046  76.7159984 104.4752652  43.2958052
  83.8690201 100.7722662  36.6086158  83.2264581 101.0655195  35.9625953
  83.3645130 100.6575582  37.4139355  81.5230365 104.5185835  27.2972017
  82.4348221 104.7513222  27.1219715  81.0140012 105.1022879  26.7347096
  74.3315793 106.7981322  42.3361148  75.0730477 107.3366366  42.0595972
  73.6252778 107.4247611  42.4932700  79.8071132 108.9410463  40.9333310
  80.2154488 108.4992873  40.1887942  79.0848394 108.3663090  41.1867503
  76.1602202 103.8783069  38.3066867  77.0063398 104.3022483  38.4501516
  76.1000840 103.2216694  39.0005430  80.1299947 109.5011653  34.6885599
  79.5008810 109.6657367  33.9861667  79.7425609 109.9153263  35.4596563
  84.0089179 110.4366091  32.0429963  83.3240217 110.8164992  31.4926996
  84.0933028 111.0461418  32.7761910  79.3101648 101.5387438  39.9648041
  79.0662580 102.2929498  39.4282316  79.5861578 101.9172785  40.7995288
  81.2640111 108.0826050  38.6425306  81.4757006 108.7257810  37.9659687
  81.2169859 107.2488367  38.1747236  78.8666340 100.6943871  35.5461878
  78.0050819 100.9925124  35.8378616  78.8928774 100.9114270  34.6142911
  75.6827909 109.2386061  31.9535684  76.1466254 109.5173764  31.1640306
  75.4184707 108.3369506  31.7708775  72.5751990 108.7857543  34.8915447
  73.1453347 109.2144811  34.2532932  73.1660102 108.5040128  35.5899633
  74.6196795 105.3609214  28.7625249  75.3220838 105.8130257  29.2299175
  74.2877424 104.7193033  29.3905142  73.0677157 103.9520970  43.1376458
  72.4375817 104.6337251  43.3711855  72.9613244 103.8404052  42.1929597
  68.3622129 103.6192766  34.0642383  67.5721183 103.8750295  33.5882493
  68.8533376 104.4341104  34.1694423  82.3785939 110.9598006  36.8147663
  83.2003382 110.5578193  36.5330345  82.3748341 110.8566240  37.7663779
  70.3136874 103.9837346  31.0225859  69.5168038 104.0956040  31.5409355
  70.0862467 104.3223998  30.1566750  76.1442542 110.5082049  38.9708374
  76.2086974 110.9702456  39.8066546  75.4353466 109.8779414  39.0990684
  66.6459832 103.8723257  36.4957373  66.8967870 104.7570267  36.7614949
  67.1819380 103.6927858  35.7232465  90.4691932 107.3036754  33.1632635
  89.7155640 106.7344152  33.0076639  90.6039473 107.2699418  34.1103270
  75.8590560 112.1750156  28.8387354  75.7236234 113.0201692  29.2672202
  76.4000372 112.3769434  28.0753288  72.3457899  98.2541736  45.5001710
  71.9524845  97.7007935  46.1749354  73.1624040  98.5652315  45.8908227
  69.3119957 109.6925594  29.4115279  69.8244478 110.4868845  29.5620844
  69.9642670 108.9951885  29.3448881  71.1214842 112.8091351  31.4938033
  71.2981470 113.7309315  31.3059016  71.9171675 112.4949770  31.9232412
  75.2625860  99.6699615  43.0921966  76.0035574 100.2706768  43.0126429
  75.4943783  98.9277253  42.5340009  70.4067198 104.8555982  41.3700196
  70.2920713 103.9541240  41.6707295  69.5511716 105.1019679  41.0185012
  77.4859036 112.7973723  42.9687696  77.0422890 112.0110101  42.6508601
  78.1476250 112.9852873  42.3031587  72.2446157 114.3269524  37.4948375
  72.7953582 114.1986588  36.7225369  71.4057633 114.6264413  37.1443268
  79.5840274 113.0776523  40.9969098  79.5658749 113.8985404  40.5049367
  80.5060194 112.9530598  41.2219239  76.0413328 110.5920652  41.8392606
  76.5741665 109.8308940  41.6091914  75.5127409 110.2994304  42.5816761
  79.2083023  95.6980718  37.3686248  78.8647293  96.5882360  37.2925358
  79.5761986  95.5082376  36.5055833  67.2768874 108.0214249  30.1874850
  68.1144096 108.4311257  29.9708558  67.4547142 107.0813691  30.1575044
  79.1733306 105.6889329  25.8758683  78.6579929 106.4593934  26.1147070
  78.9010614 105.0154465  26.4991744  76.7580417 100.5339030  30.9343921
  75.9022013 100.1445880  30.7549560  77.1707369 100.6130991  30.0743707
  78.2879564  98.0685373  35.3335481  77.7844359  98.0315508  34.5203286
  78.5810170  98.9778116  35.3932138  74.5322449  98.1524103  34.3401663
  75.3975446  97.9566912  33.9807552  74.5999958  97.9234455  35.2671020
  84.1467580 108.4421684  27.8111856  83.3697023 108.1032843  27.3667018
  84.8259061 108.4474307  27.1366821  78.9619609 103.5616421  27.7018464
  78.6569745 103.8762571  28.5528607  79.9150051 103.6397841  27.7445797
  77.4066041 109.7206645  29.3511418  76.8787403 108.9859404  29.0384655
  76.9053544 110.4981321  29.1051386  82.3858887 107.9155665  34.4678464
  81.7282561 108.6054927  34.5558593  83.1899286 108.3052097  34.8112451
  72.1384769 100.3826311  31.7118030  72.7128520 100.1601492  30.9791223
  72.7255751 100.4515005  32.4646631  81.1964346 106.2700038  32.5182406
  81.7096228 106.9030030  33.0204116  81.8465570 105.6701233  32.1525766
  72.4654356 102.4130772  25.7313915  71.6291668 102.7505459  26.0523190
  72.3259125 102.2779752  24.7941052  74.4407436  97.2567560  30.4393099
  73.7871849  96.9416577  29.8149714  74.3987910  96.6343300  31.1652922
  75.5518641 107.5386855  22.3546391  74.6445703 107.3076108  22.5537540
  76.0489673 106.7424474  22.5420373  77.6745177 103.7449493  34.7640747
  76.7567738 103.9664440  34.6062435  78.0905320 103.8195804  33.9052454
  78.4580224 105.1440909  29.8943427  79.2052043 105.6562306  29.5850549
  78.7271814 104.8224962  30.7547820  76.7306875 107.6399450  26.8770381
  75.8218094 107.3558483  26.9742851  76.7601958 108.0598528  26.0173688
  81.9626142 111.2506039  30.6461549  81.5088469 110.4096949  30.7026739
  81.3320109 111.8867438  30.9836329  80.9059062 102.1798025  31.8762216
  80.1681818 101.6675412  32.2072459  81.1585835 101.7398407  31.0645493
  80.4059081 113.0882536  31.5811367  80.6982056 113.6487593  30.8623733
  80.9157702 113.3811097  32.3364526  81.0070689  94.9574277  32.4703985
  81.3129566  94.0971641  32.1829901  81.7323294  95.5491898  32.2702979
  67.2995045 105.3604964  30.8585583  67.1019445 104.7674325  30.1336650
  66.7441709 105.0557174  31.5761522  75.2791769 105.2528070  32.9780177
  75.3340378 104.3001907  32.9022653  74.4682971 105.4087510  33.4621475
  76.4282962 109.1808193  24.2158460  75.9902392 108.4644052  23.7564097
  77.1693403 109.4084308  23.6543551  73.2184129 103.8705130  30.7370555
  72.4051994 104.1699301  31.1435748  73.7143123 103.4760819  31.4545038
  75.3692706 113.8662887  32.6704820  75.3268885 114.0923733  31.7413352
  76.2855405 113.6326262  32.8190621  78.8158340 104.3346955  39.5685449
  79.1707728 104.5618428  40.4279915  79.4630471 104.6665331  38.9462705
  84.5456077 107.4565391  30.2734778  84.4073976 107.6466986  29.3455968
  84.1892296 108.2184773  30.7302829  72.7098203 101.4423486  36.3531790
  73.3497583 101.3012245  35.6554754  71.8775734 101.1557999  35.9770392
  84.5725457 109.5241918  35.2846050  85.0061963 109.4317207  36.1329104
  85.2857037 109.4999418  34.6466066  73.4858507 110.7425916  32.4666783
  74.2799106 110.2476236  32.2649358  72.7750200 110.2143779  32.1034488
  78.3053352 113.1244012  36.8179150  78.3590374 113.6934948  37.5856866
  77.4368133 113.2945897  36.4533188  69.7941271 104.8868998  28.5426535
  68.8638859 104.8253453  28.7596498  69.8898743 104.3644951  27.7463177
  69.7126820 101.4123811  31.1304777  69.9733637 102.3269144  31.0213938
  70.5343992 100.9448253  31.2801390  71.1851745 102.8261568  38.3003602
  71.8574798 102.6178930  37.6516251  70.3581532 102.6283654  37.8608834
  85.4341006 109.5665618  37.8178935  85.6276896 110.4711429  38.0638210
  85.3341624 109.1073037  38.6517520  77.0877317  99.4523509  40.3169263
  76.4405232 100.1513458  40.2233739  77.8578332  99.8859653  40.6845511
  80.4956115 109.7172361  43.3919816  80.3441621 109.4882913  42.4749900
  80.4860794 110.6742962  43.4051161  77.2641451 107.2904274  38.3766082
  78.1933511 107.4415433  38.2035050  76.8432481 107.3788294  37.5214729
  76.0629783 111.3154938  36.1464620  75.9240869 110.9473722  37.0190558
  75.2744379 111.8302578  35.9748578  76.6577935 116.4164035  27.4890156
  76.8329691 115.9452078  28.3035779  75.9710723 117.0429801  27.7171417
  77.6134998 110.6936541  33.5353458  77.2784831 110.6537311  34.4311108
  77.1138944 110.0281257  33.0623868  71.5879242 106.1004171  39.0606039
  71.4499040 105.3684410  39.6617578  72.4984166 106.0113071  38.7790227
  80.5494190 108.0392575  23.8090517  79.9323361 107.3139403  23.7123570
  80.0810678 108.8001935  23.4657592  74.2161543 105.8124130  38.5489718
  74.9261161 105.1717322  38.5076337  74.1730851 106.0637025  39.4715899
  82.2048322 112.7491483  41.4696298  82.1460868 112.0650704  40.8026881
  82.6067840 113.4910473  41.0176924  72.9290477 102.7989348  40.3685358
  72.3927834 102.3480086  41.0206954  72.3407185 102.9335257  39.6255822
  71.2239020 119.5653397  34.2630017  71.4635619 120.1971921  34.9409035
  70.3808217 119.2141437  34.5495376  72.3392736 102.2577999  22.9311822
  71.4622202 102.1366800  22.5674068  72.8150489 101.4664078  22.6790710
  82.2065729 110.7131067  39.7010277  81.3192508 110.3756989  39.8236676
  82.7764280 109.9814099  39.9379043  63.8594876 107.0455159  33.0253329
  64.5465916 106.7316889  32.4374344  63.7043005 107.9496524  32.7520580
  68.6629598 101.9345356  37.4538352  68.5787787 101.3271025  36.7188762
  67.8412305 102.4254374  37.4547849  75.7366882 115.3732520  36.6671521
  75.6637054 116.1787491  37.1790825  75.2944275 115.5724486  35.8419542
  75.5256662 114.6104290  30.1774342  74.7424184 115.1525970  30.2712567
  76.2249407 115.1278269  30.5768583  78.8353312 100.4198919  32.8208548
  79.3322012  99.6668882  32.5009618  78.0640294 100.4563236  32.2551757
  86.6883069 106.1239285  34.4626839  86.6772946 107.0064000  34.0920772
  85.8200449 105.7710836  34.2681376  78.1965566 115.2719354  38.8229679
  78.9093538 115.9066819  38.7505581  77.7055594 115.3683220  38.0069681
  79.9183093 109.1770606  30.3946971  78.9839371 109.2972069  30.2251675
  80.0959761 108.2743073  30.1306981  75.4188281 102.5616302  32.5480232
  75.0486068 102.0087343  33.2361138  75.9147373 101.9574436  31.9955232
  83.3055644 105.0187926  30.9297005  83.7716096 105.8515917  30.8557308
  83.7563145 104.5532907  31.6342264  73.2477479 113.0213797  39.6435250
  73.9486939 113.6550280  39.7964644  72.7772594 113.3628529  38.8830889
  81.3731875 111.3631747  27.9283157  81.6491719 111.2488342  28.8377031
  80.5036374 110.9649232  27.8895330  81.2772307  97.3868513  34.9687906
  80.3635387  97.6172740  35.1370113  81.7065408  97.4706957  35.8201939
  81.0478765 105.5758405  37.4687800  80.3950216 105.8234312  36.8140253
  81.4259145 104.7622543  37.1350278  78.0085939 115.6118098  31.5715971
  78.1908334 114.7939754  32.0343723  78.8318925 115.8285790  31.1340861
  78.3428105 114.5386283  28.8331019  78.8715871 114.0278738  28.2201181
  78.6056324 114.2228813  29.6976552  77.0966338 106.3178216  43.9553838
  76.4206975 106.2172345  44.6256213  77.9193972 106.1617430  44.4189835
  68.8445197 112.5550152  36.5766353  69.4298634 111.8093840  36.7094257
  68.6470036 112.8654109  37.4603017  71.6983853 115.5901400  31.5928795
  71.0294228 116.0747527  31.1092835  71.5596722 115.8370620  32.5072174
  63.4362852 105.1255753  35.2970796  63.4746952 104.5919343  36.0907914
  62.9303145 104.5990958  34.6781773  75.8389121 117.6245143  38.1911453
  76.3907429 117.7876765  38.9560539  76.1795315 118.2149581  37.5191478
  70.8153614  99.9720293  38.7933338  70.8794941 100.8335124  38.3810736
  70.7520735  99.3594295  38.0605697  70.2905887 102.0443426  42.4406372
  70.9177926 101.6620503  43.0543897  69.4333806 101.8257628  42.8062065
  80.6899996 112.4506401  44.0460108  81.2339900 113.0636359  43.5515063
  80.1086840 113.0085979  44.5627121  67.0671430 103.8519855  28.3724727
  67.3624871 102.9430533  28.3191781  66.1659465 103.8307594  28.0505730
  78.9757508 115.5727119  35.1775136  78.8508648 114.7716859  34.6686081
  79.6336600 116.0673312  34.6889106  70.5965677 101.9275851  34.3552276
  69.8752262 102.5411819  34.2159749  71.3858932 102.4633616  34.2768922
  81.0392417 113.3736139  36.8054686  80.0922752 113.2541490  36.7333012
  81.3875190 112.4858637  36.8880947  73.3991990  99.2630278  40.6292928
  73.9226392  99.5092574  41.3919237  73.1804324 100.0950313  40.2096065
  68.7959271 101.5333952  28.4964052  68.4671977 100.6531331  28.3139158
  69.1498642 101.4781621  29.3840442  78.0438850 113.1688855  33.0059038
  77.8963813 112.2405562  33.1866608  78.8692344 113.1908946  32.5216113
  71.9101094 101.8206922  28.8639530  72.2497167 102.3492843  28.1418138
  72.3573215 102.1587328  29.6398097  81.6472972 113.9917414  34.0923911
  82.5719520 113.7860275  33.9548362  81.4788275 113.7433815  35.0013252
  74.6044535 100.2043973  38.3142598  74.2641356  99.4051786  38.7163278
  73.8983542 100.5045684  37.7419431  75.2561007  97.2893285  36.7669921
  76.0787076  96.8153763  36.6448812  75.4999071  98.0683769  37.2668607
  73.8969242 100.3181544  27.0632823  74.6177604 100.6962797  26.5596540
  73.2734546 101.0370421  27.1667801  78.0400364 101.0226693  27.9991155
  78.2563979 101.9051331  27.6979983  77.5594432 100.6312906  27.2696797
  72.7799586 103.9812406  34.5761900  72.6344167 104.2952709  35.4686181
  72.3024790 104.5997306  34.0232798  74.6395969 100.9714954  34.6242789
  74.6257538 100.0756047  34.2875087  75.3568397 100.9785618  35.2581075
  76.4922099 101.4052294  36.6695917  76.2339877 102.3269365  36.6680247
  75.9607140 101.0082729  37.3596381  81.4368288 114.5103081  29.4486002
  81.6105166 113.9449504  28.6959855  81.9297179 115.3103976  29.2665492
  67.2545248 106.5217750  37.5149561  66.7098716 107.2977558  37.6469835
  68.1324598 106.8688555  37.3568682  74.0432865  99.8529334  29.8930359
  74.1648776  98.9245980  30.0921247  73.7534907  99.8668020  28.9808675
  76.9124055  97.5384245  33.0297079  76.9345752  97.6023578  32.0749059
  77.3292114  96.6988753  33.2237585  87.2907679 107.2739504  31.0676302
  87.7338825 106.5246829  30.6695425  86.4134190 107.2649641  30.6850034
  68.0411270 105.6487647  40.4079718  67.2993006 105.7970282  40.9944348
  67.7204014 105.9095912  39.5446467  84.3234884 111.2769551  28.0770231
  84.8486208 111.6156824  27.3519551  84.2357236 110.3416566  27.8933366
  75.9854933 115.1903625  40.2060108  76.2942059 114.9452772  41.0782807
  76.7830415 115.3950263  39.7178978  76.0075545 117.3441534  32.4365484
  75.5680535 116.8517913  33.1298341  76.7583662 116.8014502  32.1957560
  68.4867884 113.5353075  32.4390112  69.3125903 113.2356847  32.0588756
  68.1361936 112.7660698  32.8879901  73.4549417 112.8879544  34.5087786
  72.8329426 112.2250249  34.2090014  74.1254284 112.9140675  33.8261434
  66.6876489 111.4539402  33.3979046  65.8508397 111.0261576  33.2163047
  66.6600134 111.6471845  34.3349837  73.5273944 101.3661332  44.1020292
  73.5762100 102.2423454  43.7198062  74.0696458 100.8238725  43.5291935
  84.0128790 111.9102455  43.3821429  83.2224334 111.8926594  42.8425929
  83.7762144 112.4490748  44.1370466  84.1326665 108.7594921  40.6954158
  84.1824670 108.5944929  41.6369680  84.0240588 107.8922180  40.3052038
  73.0162924 111.4383467  27.9846247  73.1651044 112.1218931  27.3312919
  73.8229367 111.4188557  28.4995702  81.4230427 104.7425849  42.0113464
  82.3240290 104.6032314  41.7197462  81.4978402 104.9080304  42.9511642
  75.7573233 102.1192704  40.8566651  74.8876542 102.4126270  40.5849239
  75.9932713 102.7033149  41.5773914  85.6344862 111.1791863  40.9396179
  85.3429670 111.5421843  41.7759640  85.0216993 110.4658871  40.7609511
  86.8340544 108.7444742  33.4598749  87.6687435 109.1834547  33.6236310
  86.9699673 108.2683396  32.6406995  83.8832050 106.3024477  39.4076237
  84.3586172 106.4952124  38.5995089  82.9597615 106.3583663  39.1619621
  70.7715557 107.4648645  28.9907316  70.5261599 106.5610975  29.1887526
  70.9411471 107.4665795  28.0486794  78.4612267  98.3372321  38.3732071
  78.9794210  99.0733348  38.0478560  78.1067399  98.6436314  39.2078830
  70.0411204 103.1977002  26.4893477  69.3480449 103.2721357  25.8333513
  69.7962956 102.4337346  27.0114994  78.7124861  94.7572603  33.8932968
  78.9926614  94.0895792  34.5193394  79.4975468  94.9501699  33.3807632
  76.5158329 113.9331597  25.4557994  75.9432296 114.5521784  25.0028466
  77.0891123 114.4830959  25.9897916  82.5833719 103.1790237  37.6404543
  83.5351142 103.2788335  37.6616767  82.4137169 102.3868506  38.1502627
  80.6048098 100.2645821  37.8263944  80.0098031 100.5450833  37.1310432
  80.3197795 100.7539722  38.5980685  85.0621797 106.3996357  36.7546842
  85.0298117 105.4612358  36.9406526  85.6722420 106.4780394  36.0212667
  76.9005128 105.2692410  22.7974047  77.8464232 105.1398618  22.8662465
  76.5219373 104.5307072  23.2743475  85.2116285 103.1907401  36.8005126
  84.6955334 102.4065857  36.6135055  86.0956234 102.8626117  36.9651645
  82.8727012  96.9348416  32.7600938  82.6751833  96.6263504  33.6444270
  83.4826718  97.6610055  32.8898868  90.8798347 107.4612364  35.8952879
  91.6101735 107.1997652  36.4560583  90.2705292 106.7241086  35.9354947
  88.9613644 105.6020227  36.4927330  88.2346807 105.4676191  35.8843822
  88.5460931 105.9097055  37.2984049  76.7843820 109.3210156  44.2574704
  77.7046830 109.4988755  44.4514750  76.7493403 108.3766202  44.1054403
  75.0848045 103.1942386  22.7328932  74.1779500 102.8975499  22.8091645
  75.3624026 102.8972205  21.8663218  66.0025985 104.5148750  33.1827978
  65.6828770 103.6614058  32.8902352  65.4559413 104.7297328  33.9385945
  69.7805893 107.2311191  36.8997485  69.9991903 108.1628299  36.9185518
  70.1931667 106.8719165  37.6852289  76.7010111  97.7379276  28.8873173
  75.8910839  97.3926361  29.2628419  77.3894527  97.4286820  29.4760785
  78.6300659  96.8157323  30.5097470  79.1831697  97.2352776  31.1687493
  78.8670745  95.8893071  30.5520426  74.6533758 102.8044397  46.2900234
  74.5530485 103.7538754  46.2212325  74.4355300 102.4762636  45.4176304
  73.8546829 100.0529322  22.8740911  74.7165993 100.3784220  23.1336728
  74.0397174  99.2660818  22.3613977  65.8714245 108.1351661  35.1521100
  65.1777717 107.7205614  34.6391054  66.6187236 108.1772198  34.5554519
  82.0079466  98.9257848  30.0176134  81.4278135  99.5842652  29.6354186
  81.7415399  98.1035193  29.6063551  80.4583032  98.3262906  32.2197454
  80.9582811  98.4379440  31.4111773  81.1018640  98.0223959  32.8598263
  74.5165028 106.2341535  45.1065295  74.0332110 107.0341896  45.3129184
  74.6025967 106.2449480  44.1532739  67.7850988 108.0669915  33.0287115
  67.7621676 108.1657602  32.0768998  68.0951624 108.9135066  33.3504281
  70.4438366 110.1246070  37.1433729  71.3981619 110.0930013  37.0763661
  70.2450889 109.6636694  37.9583955  71.0337748 108.6947186  39.7104527
  71.8530637 109.1891265  39.7339364  71.3074555 107.7779154  39.6822094
  80.7904344 101.0857939  29.0732482  79.9030199 101.3707589  28.8552677
  81.2058333 100.9251702  28.2259759  84.1418880 101.1104460  32.7886821
  84.9179270 101.6000912  33.0611438  83.4167014 101.5362514  33.2458691
  86.5791439 101.8232079  33.8460762  87.1735930 101.5827815  33.1354070
  86.6518022 101.1039209  34.4734298  68.7988594 115.6665690  34.1603927
  68.6643062 114.9066091  33.5941925  68.3820657 116.3906590  33.6932716
  80.7645368 106.6012474  29.2882772  80.7080569 107.0581026  28.4490405
  81.3173710 105.8403159  29.1105615  84.5750174 102.3902206  30.1132892
  84.3187108 101.9898842  30.9441100  83.9503042 103.1046000  29.9883031
  88.8862511 105.1298280  32.6204183  88.3262069 105.1991469  33.3935745
  88.2806015 104.9539264  31.9003680  71.9557720 116.5635007  34.3722370
  71.8390104 117.5080439  34.2701060  71.1350167 116.2608568  34.7608169
  81.8434255 111.2885142  25.2178962  82.6779859 110.8566341  25.0356437
  81.6818598 111.1167156  26.1455857  81.4980147 107.7917256  26.5835302
  81.4428951 107.6261527  25.6423746  80.8726202 108.4993289  26.7397491
  66.2872662 103.0285320  40.4096724  66.9331526 102.5184274  40.8983949
  66.0789813 103.7654002  40.9840149  78.8126054 110.0966168  45.9088864
  79.6817214 110.2706820  45.5475499  78.3332806 110.9160584  45.7864594
  74.8076272  97.2925365  26.1620620  74.7954942  98.2367205  26.3188891
  75.6999694  97.1095510  25.8680081  72.9812234 117.2163269  37.5878298
  73.8839481 117.2486879  37.9044793  72.7549604 116.2863720  37.6024634
  74.7365836 115.9694255  34.2488377  73.7861467 115.9696117  34.1352749
  75.0398323 115.2226990  33.7324411  78.6228392  93.8868141  30.4166557
  77.8560788  93.3326628  30.5623239  79.0339097  93.9590010  31.2780708
  70.6270153 100.1752937  44.5071738  71.4901615  99.8189742  44.7175063
  70.0535564  99.8366832  45.1947142  87.2808236 121.7582222  35.2495664
  86.9426748 121.6423286  34.3616199  88.1498004 121.3573387  35.2296670
  87.7628019 122.9117073  41.2081869  87.7516660 122.5169872  40.3362373
  87.9248659 122.1783146  41.8015641  80.6859484 125.1068890  34.0776775
  81.4780776 124.7659714  33.6623074  80.9256134 125.2163865  34.9978928
  84.4835280 125.6954185  40.1561053  84.1925146 126.5999816  40.0407720
  85.1192265 125.7370713  40.8705123  85.4091487 123.0731034  36.7462413
  86.0055059 122.8487056  36.0319376  85.4666459 122.3315779  37.3487861
  92.9493646 113.1803055  37.7514934  92.6176971 114.0498466  37.5276149
  92.3539259 112.8639339  38.4308965  82.8937647 121.8329397  33.1847551
  81.9688143 121.7005612  33.3925243  83.1422060 122.6123617  33.6817494
  92.8422309 117.8998141  34.8308284  91.9339187 117.8313549  34.5367045
  92.7909905 118.3770086  35.6590110  80.2546458 121.4762671  34.0191340
  80.3838839 121.7297150  34.9330752  79.5743909 122.0690379  33.6995995
  86.9163175 119.3187786  42.7743181  86.1396509 119.8781707  42.7646046
  87.5553738 119.8044569  43.2958052  94.7083956 116.1014579  36.6086158
  94.0658336 116.3947112  35.9625953  94.2038884 115.9867500  37.4139355
  85.1709547 122.1273240  42.3361148  85.9124232 122.6658284  42.0595972
  84.4646533 122.7539529  42.4932700  86.9995957 119.2074987  38.3066867
  87.8457152 119.6314401  38.4501516  86.9394595 118.5508611  39.0005430
  90.1495402 116.8679355  39.9648041  89.9056334 117.6221416  39.4282316
  90.4255333 117.2464703  40.7995288  89.7060094 116.0235788  35.5461878
  88.8444573 116.3217042  35.8378616  89.7322529 116.2406187  34.6142911
  83.4145745 124.1149461  34.8915447  83.9847102 124.5436729  34.2532932
  84.0053856 123.8332045  35.5899633  83.9070911 119.2812888  43.1376458
  83.2769572 119.9629169  43.3711855  83.8006999 119.1695970  42.1929597
  79.2015883 118.9484684  34.0642383  78.4114937 119.2042213  33.5882493
  79.6927131 119.7633022  34.1694423  81.1530629 119.3129263  31.0225859
  80.3561792 119.4247957  31.5409355  80.9256221 119.6515915  30.1566750
  86.9836296 125.8373966  38.9708374  87.0480729 126.2994374  39.8066546
  86.2747220 125.2071331  39.0990684  77.4853586 119.2015174  36.4957373
  77.7361625 120.0862184  36.7614949  78.0213135 119.0219776  35.7232465
  83.1851654 113.5833654  45.5001710  82.7918599 113.0299852  46.1749354
  84.0017794 113.8944232  45.8908227  86.1019615 114.9991533  43.0921966
  86.8429328 115.5998686  43.0126429  86.3337538 114.2569171  42.5340009
  81.2460953 120.1847900  41.3700196  81.1314468 119.2833157  41.6707295
  80.3905471 120.4311597  41.0185012  86.8807083 125.9212570  41.8392606
  87.4135420 125.1600858  41.6091914  86.3521164 125.6286222  42.5816761
  90.0476778 111.0272636  37.3686248  89.7041047 111.9174278  37.2925358
  90.4155740 110.8374293  36.5055833  89.1273318 113.3977291  35.3335481
  88.6238114 113.3607426  34.5203286  89.4203925 114.3070034  35.3932138
  85.3716204 113.4816021  34.3401663  86.2369201 113.2858829  33.9807552
  85.4393713 113.2526372  35.2671020  82.9778523 115.7118229  31.7118030
  83.5522275 115.4893410  30.9791223  83.5649505 115.7806923  32.4646631
  85.2801191 112.5859478  30.4393099  84.6265603 112.2708495  29.8149714
  85.2381665 111.9635218  31.1652922  88.5138931 119.0741411  34.7640747
  87.5961492 119.2956358  34.6062435  88.9299075 119.1487722  33.9052454
  91.8464443 110.2866195  32.4703985  92.1523320 109.4263558  32.1829901
  92.5717048 110.8783815  32.2702979  78.1388799 120.6896882  30.8585583
  77.9413199 120.0966242  30.1336650  77.5835463 120.3849092  31.5761522
  86.1185523 120.5819988  32.9780177  86.1734133 119.6293824  32.9022653
  85.3076725 120.7379427  33.4621475  84.0577883 119.1997048  30.7370555
  83.2445749 119.4991218  31.1435748  84.5536877 118.8052737  31.4545038
  89.6552095 119.6638872  39.5685449  90.0101482 119.8910345  40.4279915
  90.3024226 119.9957249  38.9462705  83.5491958 116.7715403  36.3531790
  84.1891337 116.6304162  35.6554754  82.7169488 116.4849917  35.9770392
  80.5520574 116.7415728  31.1304777  80.8127391 117.6561062  31.0213938
  81.3737747 116.2740171  31.2801390  82.0245500 118.1553486  38.3003602
  82.6968553 117.9470848  37.6516251  81.1975286 117.9575572  37.8608834
  87.9271072 114.7815426  40.3169263  87.2798987 115.4805376  40.2233739
  88.6972087 115.2151570  40.6845511  88.1035206 122.6196191  38.3766082
  89.0327266 122.7707351  38.2035050  87.6826236 122.7080212  37.5214729
  86.9023538 126.6446856  36.1464620  86.7634623 126.2765640  37.0190558
  86.1138134 127.1594495  35.9748578  82.4272997 121.4296088  39.0606039
  82.2892795 120.6976327  39.6617578  83.3377920 121.3404989  38.7790227
  85.0555297 121.1416048  38.5489718  85.7654916 120.5009240  38.5076337
  85.0124606 121.3928943  39.4715899  83.7684231 118.1281266  40.3685358
  83.2321588 117.6772004  41.0206954  83.1800940 118.2627175  39.6255822
  74.6988631 122.3747077  33.0253329  75.3859670 122.0608807  32.4374344
  74.5436759 123.2788441  32.7520580  79.5023353 117.2637273  37.4538352
  79.4181541 116.6562943  36.7188762  78.6806059 117.7546292  37.4547849
  89.6747067 115.7490837  32.8208548  90.1715766 114.9960799  32.5009618
  88.9034048 115.7855154  32.2551757  86.2582035 117.8908220  32.5480232
  85.8879823 117.3379260  33.2361138  86.7541128 117.2866353  31.9955232
  92.1166061 112.7160430  34.9687906  91.2029141 112.9464657  35.1370113
  92.5459163 112.7998874  35.8201939  91.8872520 120.9050322  37.4687800
  91.2343970 121.1526230  36.8140253  92.2652900 120.0914461  37.1350278
  87.9360093 121.6470133  43.9553838  87.2600730 121.5464263  44.6256213
  88.7587727 121.4909347  44.4189835  79.6838952 127.8842070  36.5766353
  80.2692389 127.1385758  36.7094257  79.4863790 128.1946027  37.4603017
  74.2756607 120.4547670  35.2970796  74.3140706 119.9211261  36.0907914
  73.7696899 119.9282876  34.6781773  81.6547369 115.3012211  38.7933338
  81.7188695 116.1627042  38.3810736  81.5914489 114.6886212  38.0605697
  81.1299641 117.3735343  42.4406372  81.7571680 116.9912421  43.0543897
  80.2727560 117.1549545  42.8062065  77.9065184 119.1811772  28.3724727
  78.2018625 118.2722451  28.3191781  77.0053220 119.1599512  28.0505730
  81.4359431 117.2567769  34.3552276  80.7146017 117.8703737  34.2159749
  82.2252687 117.7925534  34.2768922  84.2385745 114.5922195  40.6292928
  84.7620147 114.8384492  41.3919237  84.0198078 115.4242230  40.2096065
  79.6353026 116.8625870  28.4964052  79.3065732 115.9823249  28.3139158
  79.9892397 116.8073539  29.3840442  85.4438290 115.5335891  38.3142598
  85.1035110 114.7343704  38.7163278  84.7377296 115.8337601  37.7419431
  86.0954762 112.6185203  36.7669921  86.9180831 112.1445681  36.6448812
  86.3392825 113.3975687  37.2668607  83.6193340 119.3104324  34.5761900
  83.4737921 119.6244627  35.4686181  83.1418544 119.9289224  34.0232798
  85.4789723 116.3006872  34.6242789  85.4651292 115.4047965  34.2875087
  86.1962151 116.3077535  35.2581075  87.3315854 116.7344212  36.6695917
  87.0733632 117.6561282  36.6680247  86.8000894 116.3374646  37.3596381
  78.0939003 121.8509668  37.5149561  77.5492471 122.6269476  37.6469835
  78.9718352 122.1980472  37.3568682  84.8826619 115.1821252  29.8930359
  85.0042530 114.2537898  30.0921247  84.5928662 115.1959938  28.9808675
  87.7517810 112.8676162  33.0297079  87.7739506 112.9315495  32.0749059
  88.1685869 112.0280671  33.2237585  78.8805024 120.9779564  40.4079718
  78.1386760 121.1262200  40.9944348  78.5597769 121.2387830  39.5446467
  77.5270243 126.7831319  33.3979046  76.6902151 126.3553494  33.2163047
  77.4993889 126.9763763  34.3349837  84.3667699 116.6953249  44.1020292
  84.4155854 117.5715372  43.7198062  84.9090213 116.1530642  43.5291935
  92.2624182 120.0717767  42.0113464  93.1634045 119.9324232  41.7197462
  92.3372156 120.2372222  42.9511642  86.5966987 117.4484622  40.8566651
  85.7270297 117.7418188  40.5849239  86.8326468 118.0325067  41.5773914
  89.3006021 113.6664239  38.3732071  89.8187965 114.4025265  38.0478560
  88.9461154 113.9728232  39.2078830  89.5518615 110.0864521  33.8932968
  89.8320369 109.4187710  34.5193394  90.3369222 110.2793617  33.3807632
  93.4227474 118.5082155  37.6404543  94.3744896 118.6080253  37.6616767
  93.2530924 117.7160424  38.1502627  91.4441853 115.5937738  37.8263944
  90.8491785 115.8742751  37.1310432  91.1591550 116.0831639  38.5980685
  96.0510040 118.5199318  36.8005126  95.5349088 117.7357775  36.6135055
  96.9349988 118.1918035  36.9651645  93.7120767 112.2640334  32.7600938
  93.5145588 111.9555422  33.6444270  94.3220472 112.9901973  32.8898868
  87.6237575 124.6502074  44.2574704  88.5440584 124.8280673  44.4514750
  87.5887158 123.7058119  44.1054403  76.8419740 119.8440668  33.1827978
  76.5222524 118.9905976  32.8902352  76.2953168 120.0589246  33.9385945
  80.6199647 122.5603109  36.8997485  80.8385657 123.4920216  36.9185518
  81.0325421 122.2011083  37.6852289  87.5403865 113.0671194  28.8873173
  86.7304593 112.7218279  29.2628419  88.2288282 112.7578738  29.4760785
  89.4694413 112.1449241  30.5097470  90.0225452 112.5644694  31.1687493
  89.7064500 111.2184989  30.5520426  85.4927513 118.1336314  46.2900234
  85.3924239 119.0830671  46.2212325  85.2749055 117.8054553  45.4176304
  76.7108000 123.4643579  35.1521100  76.0171471 123.0497532  34.6391054
  77.4580991 123.5064116  34.5554519  91.2976787 113.6554824  32.2197454
  91.7976565 113.7671358  31.4111773  91.9412395 113.3515876  32.8598263
  85.3558783 121.5633453  45.1065295  84.8725864 122.3633813  45.3129184
  85.4419722 121.5741398  44.1532739  78.6244742 123.3961833  33.0287115
  78.6015430 123.4949520  32.0768998  78.9345379 124.2426984  33.3504281
  81.2832120 125.4537988  37.1433729  82.2375374 125.4221930  37.0763661
  81.0844644 124.9928612  37.9583955  81.8731502 124.0239104  39.7104527
  82.6924391 124.5183183  39.7339364  82.1468310 123.1071072  39.6822094
  77.1266416 118.3577238  40.4096724  77.7725280 117.8476192  40.8983949
  76.9183568 119.0945919  40.9840149  89.4622146 109.2160059  30.4166557
  88.6954542 108.6618546  30.5623239  89.8732851 109.2881928  31.2780708
  81.4663907 115.5044855  44.5071738  82.3295369 115.1481660  44.7175063
  80.8929318 115.1658750  45.1947142  26.4931224  12.8108935  30.7705415
  27.0371128  13.4238893  30.2760369  25.9118069  13.3688513  31.2872428
  29.8160019  12.2704989  30.1066736  29.0255562  12.2529128  29.5671235
  29.5793373  12.8093283  30.8615772  24.6157283  10.4568702  32.6334171
  25.4848443  10.6309354  32.2720806  24.1364034  11.2763119  32.5109900
  36.2749759  22.1657328  22.0379446  36.9128169  22.0464075  21.3342786
  36.1570602  23.1138172  22.0967398  33.0839465  22.1184756  21.9740970
  32.7457977  22.0025821  21.0861505  33.9529233  21.7175921  21.9541976
  33.5659248  23.2719608  27.9327176  33.5547889  22.8772406  27.0607680
  33.7279887  22.5385680  28.5260947  30.2866509  26.0556719  26.8806360
  29.9956375  26.9602350  26.7653026  30.9223493  26.0973247  27.5950429
  31.2122716  23.4333568  23.4707719  31.8086288  23.2089590  22.7564682
  31.2697688  22.6918313  24.0733167  41.2299454  19.8284015  20.0165632
  41.9624626  19.2583232  20.2503462  40.4738810  19.4405615  20.4572138
  38.7524875  13.5405589  24.4760241  38.4208199  14.4101000  24.2521456
  38.1570488  13.2241873  25.1554271  35.2456394  25.7418135  23.8756154
  34.9457117  26.6443174  23.7671961  34.9007454  25.4750318  24.7277306
  38.6453538  18.2600675  21.5553591  37.7370415  18.1916083  21.2612352
  38.5941134  18.7372620  22.3835416  30.2277174  32.5062455  16.8427121
  30.1501204  33.4570280  16.9215602  29.6238818  32.1608328  17.5002048
  32.7194404  19.6790321  29.4988488  31.9427738  20.2384241  29.4891353
  33.3584967  20.1647104  30.0203358  40.5115184  16.4617113  23.3331465
  39.8689565  16.7549647  22.6871259  40.0070113  16.3470034  24.1384661
  30.9740776  22.4875774  29.0606455  31.7155460  23.0260818  28.7841279
  30.2677762  23.1142063  29.2178007  36.4496116  24.6304914  27.6578617
  36.8579472  24.1887325  26.9133249  35.7273377  24.0557542  27.9112810
  32.8027186  19.5677521  25.0312174  33.6488381  19.9916935  25.1746823
  32.7425823  18.9111146  25.7250737  36.7724930  25.1906105  21.4130905
  36.1433793  25.3551819  20.7106973  36.3850592  25.6047715  22.1841870
  40.6514162  26.1260543  18.7675269  39.9665200  26.5059444  18.2172303
  40.7358012  26.7355870  19.5007217  35.9526631  17.2281890  26.6893347
  35.7087563  17.9823950  26.1527623  36.2286562  17.6067237  27.5240594
  37.9065094  23.7720502  25.3670613  38.1181989  24.4152262  24.6904994
  37.8594842  22.9382819  24.8992543  29.2176973  24.4751995  21.6160754
  29.7878330  24.9039263  20.9778238  29.8085085  24.1934579  22.3144940
  29.7102140  19.6415422  29.8621765  29.0800800  20.3231703  30.0957162
  29.6038228  19.5298504  28.9174903  39.0210922  26.6492457  23.5392970
  39.8428366  26.2472645  23.2575652  39.0173325  26.5460692  24.4909086
  32.7867525  26.1976501  25.6953681  32.8511958  26.6596908  26.5311852
  32.0778449  25.5673866  25.8235990  47.1116915  22.9931206  19.8877942
  46.3580623  22.4238604  19.7321946  47.2464456  22.9593870  20.8348576
  28.9882883  13.9436188  32.2247016  28.5949828  13.3902387  32.8994660
  29.8049023  14.2546767  32.6153534  31.9050844  15.3594067  29.8167273
  32.6460557  15.9601220  29.7371735  32.1368766  14.6171705  29.2585315
  27.0492182  20.5450434  28.0945502  26.9345697  19.6435692  28.3952601
  26.1936699  20.7914131  27.7430319  34.1284019  28.4868175  29.6933003
  33.6847874  27.7004553  29.3753908  34.7901233  28.6747325  29.0276894
  28.8871140  30.0163976  24.2193682  29.4378566  29.8881040  23.4470675
  28.0482616  30.3158865  23.8688574  36.2265257  28.7670975  27.7214404
  36.2083733  29.5879856  27.2294673  37.1485177  28.6425050  27.9464545
  32.6838312  26.2815104  28.5637913  33.2166648  25.5203392  28.3337221
  32.1552393  25.9888756  29.3062067  39.0283870  23.6050117  21.1923771
  38.3707545  24.2949378  21.2803900  39.8324269  23.9946549  21.5357757
  37.8389329  21.9594490  19.2427713  38.3521211  22.5924482  19.7449422
  38.4890553  21.3595685  18.8771073  38.6051125  26.9400491  17.3706855
  38.1513452  26.0991401  17.4272046  37.9745092  27.5761890  17.7081636
  37.0484065  28.7776988  18.3056674  37.3407039  29.3382045  17.5869039
  37.5582685  29.0705549  19.0609833  32.0117690  29.5557339  19.3950127
  31.9693869  29.7818185  18.4658659  32.9280389  29.3220714  19.5435928
  35.4583324  20.0241407  26.2930756  35.8132711  20.2512880  27.1525222
  36.1055455  20.3559783  25.6708011  41.2150440  25.2136369  22.0091356
  41.6486947  25.1211659  22.8574410  41.9282021  25.1893870  21.3711372
  34.9478335  28.8138464  23.5424457  35.0015357  29.3829400  24.3102173
  34.0793116  28.9840349  23.1778494  42.0765990  25.2560070  24.5424242
  42.2701880  26.1605881  24.7883517  41.9766608  24.7967489  25.3762827
  33.7302300  15.1417961  27.0414569  33.0830215  15.8407910  26.9479046
  34.5003316  15.5754105  27.4090817  37.1381098  25.4066813  30.1165122
  36.9866605  25.1777365  29.1995206  37.1285778  26.3637414  30.1296467
  33.9066435  22.9798726  25.1011389  34.8358495  23.1309885  24.9280356
  33.4857465  23.0682746  24.2460035  32.7054766  27.0049390  22.8709927
  32.5665852  26.6368174  23.7435865  31.9169363  27.5197029  22.6993884
  34.2559982  26.3830993  20.2598764  33.9209814  26.3431763  21.1556414
  33.7563927  25.7175709  19.7869175  28.2304226  21.7898623  25.7851345
  28.0924024  21.0578862  26.3862885  29.1409149  21.7007523  25.5035533
  30.8586526  21.5018582  25.2735025  31.5686145  20.8611774  25.2321644
  30.8155834  21.7531477  26.1961206  38.8473305  28.4385935  28.1941604
  38.7885851  27.7545156  27.5272187  39.2492823  29.1804925  27.7422230
  29.5715460  18.4883800  27.0930665  29.0352817  18.0374538  27.7452261
  28.9832169  18.6229709  26.3501129  27.8664004  35.2547849  20.9875323
  28.1060602  35.8866373  21.6654342  27.0233200  34.9035889  21.2740682
  38.8490712  26.4025519  26.4255584  37.9617491  26.0651441  26.5481983
  39.4189263  25.6708551  26.6624349  32.3791866  31.0626972  23.3916827
  32.3062037  31.8681943  23.9036132  31.9369259  31.2618937  22.5664849
  32.1681645  30.2998742  16.9019649  31.3849167  30.8420422  16.9957873
  32.8674390  30.8172721  17.3013890  43.3308053  21.8133737  21.1872146
  43.3197929  22.6958452  20.8166079  42.4625432  21.4605288  20.9926683
  34.8390549  30.9613806  25.5474986  35.5518521  31.5961271  25.4750887
  34.3480578  31.0577672  24.7314988  29.8902463  28.7108249  26.3680557
  30.5911922  29.3444732  26.5209951  29.4197578  29.0522981  25.6076196
  37.6903749  21.2652857  24.1933107  37.0375199  21.5128764  23.5385560
  38.0684129  20.4516995  23.8595584  34.6510922  31.3012550  18.2961277
  34.8333317  30.4834206  18.7589030  35.4743909  31.5180242  17.8586167
  34.9853088  30.2280735  15.5576326  35.5140854  29.7173190  14.9446488
  35.2481308  29.9123265  16.4221859  33.7391322  22.0072668  30.6799144
  33.0631959  21.9066797  31.3501519  34.5618956  21.8511881  31.1435141
  25.4870181  28.2444604  23.3011659  26.0723618  27.4988292  23.4339564
  25.2895019  28.5548561  24.1848323  28.3408836  31.2795852  18.3174102
  27.6719211  31.7641979  17.8338142  28.2021706  31.5265072  19.2317480
  32.4814105  33.3139595  24.9156760  33.0332413  33.4771217  25.6805845
  32.8220298  33.9044033  24.2436785  26.9330870  17.7337877  29.1651679
  27.5602909  17.3514955  29.7789203  26.0758789  17.5152079  29.5307372
  37.3324979  28.1400853  30.7705415  37.8764883  28.7530811  30.2760369
  36.7511824  28.6980431  31.2872428  35.6182492  31.2621571  21.9020442
  35.4933631  30.4611310  21.3931388  36.2761583  31.7567764  21.4134412
  37.6817400  29.0630591  23.5299992  36.7347736  28.9435942  23.4578319
  38.0300173  28.1753089  23.6126254  30.0416974  14.9524730  27.3538234
  30.5651375  15.1987026  28.1164544  29.8229307  15.7844764  26.9341372
  34.6863833  28.8583307  19.7304345  34.5388796  27.9300014  19.9111915
  35.5117327  28.8803398  19.2461420  38.2897955  29.6811866  20.8169217
  39.2144503  29.4754727  20.6793668  38.1213259  29.4328267  21.7258559
  33.1347083  17.0946746  23.3941223  32.8764861  18.0163817  23.3925554
  32.6032123  16.6977181  24.0841688  38.0793272  30.1997533  16.1731309
  38.2530149  29.6343956  15.4205161  38.5722163  30.9998428  15.9910799
  23.8970231  22.2112202  24.2394868  23.3523699  22.9872010  24.3715142
  24.7749581  22.5583007  24.0813989  43.9332663  22.9633956  17.7921609
  44.3763809  22.2141281  17.3940732  43.0559173  22.9544092  17.4095341
  24.6836253  21.3382098  27.1325024  23.9417989  21.4864734  27.7189655
  24.3628997  21.5990364  26.2691774  32.6279916  30.8798077  26.9305414
  32.9367042  30.6347223  27.8028114  33.4255398  31.0844715  26.4424285
  32.6500528  33.0335986  19.1610791  32.2105518  32.5412365  19.8543648
  33.4008645  32.4908954  18.9202866  30.0974400  28.5773995  21.2333093
  29.4754409  27.9144700  20.9335321  30.7679267  28.6035127  20.5506740
  30.1698928  17.0555783  30.8265599  30.2187083  17.9317906  30.4443368
  30.7121442  16.5133176  30.2537242  40.6553773  27.5996907  30.1066736
  39.8649317  27.5821046  29.5671235  40.4187128  28.1385200  30.8615772
  40.7751648  24.4489373  27.4199464  40.8249653  24.2839381  28.3614987
  40.6665572  23.5816632  27.0297345  38.0655411  20.4320301  28.7358771
  38.9665273  20.2926766  28.4442769  38.1403385  20.5974756  29.6756948
  32.3998216  17.8087156  27.5811957  31.5301525  18.1020722  27.3094546
  32.6357696  18.3927601  28.3019221  42.2769845  26.8686315  27.6641486
  41.9854653  27.2316295  28.5004947  41.6641976  26.1553323  27.4854818
  43.4765527  24.4339194  20.1844056  44.3112419  24.8728998  20.3481616
  43.6124656  23.9577848  19.3652302  40.5257033  21.9918929  26.1321544
  41.0011155  22.1846576  25.3240395  39.6022599  22.0478115  25.8864928
  35.1037250  14.0266773  25.0977378  35.6219194  14.7627800  24.7723866
  34.7492383  14.3330766  25.9324137  39.2258702  18.8684689  24.3649849
  40.1776125  18.9682787  24.3862074  39.0562153  18.0762958  24.8747934
  37.2473082  15.9540273  24.5509250  36.6523014  16.2345285  23.8555739
  36.9622778  16.4434173  25.3225992  41.7046780  22.0890809  23.4792149
  41.6723100  21.1506810  23.6651833  42.3147404  22.1674846  22.7457974
  41.8541269  18.8801852  23.5250432  41.3380317  18.0960309  23.3380361
  42.7381217  18.5520569  23.6896952  47.5223330  23.1506816  22.6198186
  48.2526718  22.8892104  23.1805889  46.9130275  22.4135538  22.6600254
  45.6038627  21.2914678  23.2172637  44.8771791  21.1570643  22.6089129
  45.1885914  21.5991507  24.0229355  33.4268804  25.0104608  30.9820010
  34.3471813  25.1883207  31.1760057  33.3918387  24.0660653  30.8299709
  26.4230876  22.9205643  23.6242791  26.6416886  23.8522751  23.6430825
  26.8356650  22.5613617  24.4097595  31.2958741  18.4938849  33.0145540
  31.1955468  19.4433205  32.9457631  31.0780283  18.1657087  32.1421610
  31.1590011  21.9235987  31.8310602  30.6757093  22.7236347  32.0374491
  31.2450950  21.9343932  30.8778046  27.0863349  25.8140522  23.8679036
  28.0406602  25.7824464  23.8008967  26.8875872  25.3531146  24.6829262
  27.6762731  24.3841638  26.4349833  28.4955620  24.8785717  26.4584671
  27.9499539  23.4673606  26.4067401  43.2216422  17.5126531  20.5706069
  43.8160913  17.2722267  19.8599377  43.2943006  16.7933661  21.1979605
  25.4413578  31.3560142  20.8849234  25.3068046  30.5960542  20.3187232
  25.0245640  32.0801041  20.4178022  45.5287495  20.8192731  19.3449490
  44.9687053  20.8885921  20.1181052  44.9230998  20.6433716  18.6248986
  28.5982704  32.2529459  21.0967676  28.4815088  33.1974891  20.9946366
  27.7775150  31.9503020  21.4853475  22.9297645  18.7179772  27.1342030
  23.5756509  18.2078726  27.6229256  22.7214796  19.4548454  27.7085456
  35.4551037  25.7860619  32.6334171  36.3242197  25.9601272  32.2720806
  34.9757789  26.6055036  32.5109900  29.6237218  32.9057720  24.3123605
  30.5264464  32.9381331  24.6290100  29.3974588  31.9758171  24.3269940
  31.3790820  31.6588707  20.9733683  30.4286451  31.6590569  20.8598056
  31.6823306  30.9121442  20.4569718  27.2695136  15.8647389  31.2317045
  28.1326598  15.5084194  31.4420369  26.6960547  15.5261284  31.9192449
  47.1143513  37.4949245  22.0379446  47.7521923  37.3755993  21.3342786
  46.9964356  38.4430089  22.0967398  43.9233219  37.4476674  21.9740970
  43.5851731  37.3317738  21.0861505  44.7922988  37.0467839  21.9541976
  39.7820035  39.3012150  17.9637861  39.2184900  39.2102087  17.1954149
  39.6672430  38.4812054  18.4440354  44.4053002  38.6011525  27.9327176
  44.3941643  38.2064324  27.0607680  44.5673642  37.8677598  28.5260947
  37.3284467  40.7963342  20.8022082  38.1205759  40.4554166  20.3868381
  37.5681117  40.9058317  21.7224235  45.3619594  42.9683118  13.2752326
  44.7107574  43.5537198  12.8886340  46.1563957  43.4989313  13.3347364
  39.2875221  40.0572255  13.6739461  40.0606097  39.5101242  13.5352336
  39.6400620  40.9216504  13.8853922  41.1260264  41.3848637  26.8806360
  40.8350130  42.2894268  26.7653026  41.7617248  41.4265165  27.5950429
  42.0516470  38.7625486  23.4707719  42.6480043  38.5381508  22.7564682
  42.1091442  38.0210231  24.0733167  41.6241499  36.2164921  11.3057910
  41.8767020  35.6946442  10.5441373  40.6866058  36.0531066  11.4084594
  46.6684782  35.2200699  19.1132654  47.4547871  34.8020122  18.7623071
  46.9323486  36.1246791  19.2814302  46.8394859  40.6573550  13.8121310
  46.2040692  40.7308176  14.5242215  46.5092265  41.2467148  13.1340390
  52.0693209  35.1575932  20.0165632  52.8018381  34.5875149  20.2503462
  51.3132565  34.7697533  20.4572138  41.3437788  38.1193027  13.5082285
  41.2274046  37.4437930  14.1763370  41.4540048  37.6325401  12.6914438
  43.6869329  37.5803174  17.2128975  43.3227536  37.0533795  17.9241896
  44.5436444  37.1901643  17.0395460  49.5918629  28.8697507  24.4760241
  49.2601954  29.7392918  24.2521456  48.9964243  28.5533791  25.1554271
  43.3274816  32.6093074  12.2090323  43.4949218  33.4773310  12.5760794
  43.1371985  32.7720355  11.2851612  46.0850149  41.0710053  23.8756154
  45.7850872  41.9735091  23.7671961  45.7401208  40.8042236  24.7277306
  39.5362630  37.5223849  19.9092858  38.6113127  37.3900063  20.1170550
  39.7847043  38.3018069  20.4062800  49.4847293  33.5892593  21.5553591
  48.5764170  33.5208001  21.2612352  49.4334888  34.0664538  22.3835416
  43.3064036  35.0650731  13.1936990  43.1863662  35.5107782  14.0322470
  42.6116625  35.4136049  12.6350528  36.8971441  37.1657123  20.7436647
  37.0263822  37.4191602  21.6576059  36.2168893  37.7584831  20.4241302
  41.0670929  47.8354373  16.8427121  40.9894958  48.7862198  16.9215602
  40.4632572  47.4900245  17.5002048  43.5588158  35.0082238  29.4988488
  42.7821492  35.5676158  29.4891353  44.1978721  35.4939021  30.0203358
  51.3508939  31.7909031  23.3331465  50.7083319  32.0841564  22.6871259
  50.8463867  31.6761951  24.1384661  49.0049103  35.5372204  14.0217324
  49.9166959  35.7699591  13.8465022  48.4958750  36.1209249  13.4592403
  41.8134531  37.8167692  29.0606455  42.5549215  38.3552736  28.7841279
  41.1071516  38.4433980  29.2178007  47.2889870  39.9596832  27.6578617
  47.6973226  39.5179243  26.9133249  46.5667132  39.3849460  27.9112810
  43.6420940  34.8969439  25.0312174  44.4882135  35.3208852  25.1746823
  43.5819578  34.2403063  25.7250737  47.6118685  40.5198023  21.4130905
  46.9827547  40.6843737  20.7106973  47.2244347  40.9339632  22.1841870
  51.4907917  41.4552461  18.7675269  50.8058955  41.8351362  18.2172303
  51.5751766  42.0647787  19.5007217  46.7920386  32.5573807  26.6893347
  46.5481317  33.3115868  26.1527623  47.0680316  32.9359155  27.5240594
  48.7458848  39.1012420  25.3670613  48.9575744  39.7444180  24.6904994
  48.6988597  38.2674736  24.8992543  46.3485077  31.7130240  22.2707185
  45.4869556  32.0111494  22.5623922  46.3747512  31.9300639  21.3388218
  43.1646647  40.2572431  18.6780991  43.6284992  40.5360134  17.8885613
  42.9003445  39.3555875  18.4954081  40.0570728  39.8043912  21.6160754
  40.6272085  40.2331181  20.9778238  40.6478840  39.5226497  22.3144940
  42.1015533  36.3795583  15.4870556  42.8039576  36.8316627  15.9544482
  41.7696161  35.7379402  16.1150449  40.5495894  34.9707340  29.8621765
  39.9194555  35.6523621  30.0957162  40.4431982  34.8590421  28.9174903
  35.8440867  34.6379136  20.7887689  35.0539921  34.8936664  20.3127800
  36.3352114  35.4527474  20.8939730  49.8604676  41.9784375  23.5392970
  50.6822120  41.5764562  23.2575652  49.8567079  41.8752609  24.4909086
  37.7955612  35.0023715  17.7471166  36.9986775  35.1142409  18.2654662
  37.5681204  35.3410367  16.8812057  43.6261280  41.5268418  25.6953681
  43.6905712  41.9888826  26.5311852  42.9172204  40.8965783  25.8235990
  34.1278570  34.8909626  23.2202680  34.3786608  35.7756636  23.4860256
  34.6638118  34.7114228  22.4477772  57.9510669  38.3223124  19.8877942
  57.1974378  37.7530522  19.7321946  58.0858211  38.2885788  20.8348576
  43.3409297  43.1936526  15.5632661  43.2054972  44.0388062  15.9917509
  43.8819110  43.3955803  14.7998595  39.8276637  29.2728106  32.2247016
  39.4343583  28.7194304  32.8994660  40.6442777  29.5838684  32.6153534
  36.7938695  40.7111964  16.1360586  37.3063215  41.5055214  16.2866151
  37.4461408  40.0138254  16.0694188  38.6033580  43.8277720  18.2183339
  38.7800208  44.7495685  18.0304323  39.3990413  43.5136139  18.6477719
  42.7444598  30.6885985  29.8167273  43.4854311  31.2893138  29.7371735
  42.9762521  29.9463623  29.2585315  37.8885936  35.8742352  28.0945502
  37.7739451  34.9727609  28.3952601  37.0330454  36.1206049  27.7430319
  44.9677774  43.8160092  29.6933003  44.5241628  43.0296471  29.3753908
  45.6294987  44.0039243  29.0276894  39.7264895  45.3455894  24.2193682
  40.2772320  45.2172957  23.4470675  38.8876371  45.6450783  23.8688574
  47.0659012  44.0962892  27.7214404  47.0477487  44.9171773  27.2294673
  47.9878932  43.9716968  27.9464545  43.5232066  41.6107022  28.5637913
  44.0560403  40.8495310  28.3337221  42.9946147  41.3180674  29.3062067
  46.6901761  26.7167088  24.0931554  46.3466030  27.6068729  24.0170665
  47.0580724  26.5268745  23.2301139  34.7587612  39.0400618  16.9120157
  35.5962834  39.4497627  16.6953864  34.9365879  38.1000060  16.8820350
  46.6552044  36.7075699  12.6003990  46.1398667  37.4780303  12.8392377
  46.3829352  36.0340835  13.2237051  44.2399155  31.5525400  17.6589228
  43.3840751  31.1632250  17.4794867  44.6526107  31.6317360  16.7989013
  45.7698301  29.0871743  22.0580788  45.2663097  29.0501878  21.2448593
  46.0628908  29.9964486  22.1177444  42.0141187  29.1710473  21.0646969
  42.8794184  28.9753281  20.7052859  42.0818696  28.9420824  21.9916326
  51.6286318  39.4608053  14.5357163  50.8515761  39.1219213  14.0912325
  52.3077799  39.4660677  13.8612128  46.4438347  34.5802791  14.4263771
  46.1388482  34.8948940  15.2773914  47.3968789  34.6584211  14.4691104
  44.8884779  40.7393014  16.0756725  44.3606140  40.0045774  15.7629962
  44.3872281  41.5167691  15.8296693  49.8677625  38.9342035  21.1923771
  49.2101299  39.6241296  21.2803900  50.6718024  39.3238467  21.5357757
  39.6203506  31.4012681  18.4363336  40.1947258  31.1787862  17.7036529
  40.2074489  31.4701375  19.1891938  48.6783084  37.2886407  19.2427713
  49.1914965  37.9216399  19.7449422  49.3284307  36.6887603  18.8771073
  39.9473093  33.4317142  12.4559221  39.1110406  33.7691828  12.7768496
  39.8077863  33.2966121  11.5186358  41.9226174  28.2753929  17.1638406
  41.2690586  27.9602947  16.5395020  41.8806648  27.6529670  17.8898229
  43.0337379  38.5573225   9.0791698  42.1264441  38.3262478   9.2782847
  43.5308411  37.7610844   9.2665679  45.9405458  47.2670732  11.9988384
  45.2667157  47.5702428  12.6073342  46.3271280  48.0699812  11.6493841
  45.1563914  34.7635863  21.4886053  44.2386476  34.9850810  21.3307741
  45.5724058  34.8382173  20.6297761  45.9398962  36.1627279  16.6188734
  46.6870781  36.6748676  16.3095856  46.2090552  35.8411331  17.4793127
  44.2125612  38.6585819  13.6015688  43.3036832  38.3744852  13.6988158
  44.2420696  39.0784898  12.7418995  49.4444880  42.2692409  17.3706855
  48.9907207  41.4283319  17.4272046  48.8138846  42.9053807  17.7081636
  48.3877799  33.1984395  18.6007523  47.6500556  32.6861781  18.9317765
  48.6404573  32.7584777  17.7890800  47.8877819  44.1068906  18.3056674
  48.1800793  44.6673963  17.5869039  48.3976440  44.3997467  19.0609833
  48.4889427  25.9760647  19.1949292  48.7948303  25.1158010  18.9075207
  49.2142031  26.5678267  18.9948286  34.7813783  36.3791334  17.5830890
  34.5838183  35.7860694  16.8581957  34.2260447  36.0743544  18.3006829
  42.7610506  36.2714440  19.7025483  42.8159116  35.3188276  19.6267960
  41.9501708  36.4273879  20.1866782  43.9101700  40.1994563  10.9403766
  43.4721130  39.4830422  10.4809404  44.6512141  40.4270678  10.3788858
  40.7002866  34.8891500  17.4615862  39.8870732  35.1885670  17.8681054
  41.1961860  34.4947189  18.1790344  42.8511444  44.8849257  19.3950127
  42.8087623  45.1110103  18.4658659  43.7674143  44.6512631  19.5435928
  46.2977078  35.3533324  26.2930756  46.6526466  35.5804797  27.1525222
  46.9449209  35.6851701  25.6708011  52.0274815  38.4751760  16.9980085
  51.8892714  38.6653356  16.0701274  51.6711034  39.2371143  17.4548136
  40.1916941  32.4609855  23.0777097  40.8316320  32.3198614  22.3800060
  39.3594472  32.1744369  22.7015699  52.0544195  40.5428287  22.0091356
  52.4880701  40.4503576  22.8574410  52.7675775  40.5185788  21.3711372
  40.9677245  41.7612286  19.1912089  41.7617843  41.2662606  18.9894664
  40.2568937  41.2330149  18.8279795  45.7872089  44.1430381  23.5424457
  45.8409112  44.7121318  24.3102173  44.9186871  44.3132266  23.1778494
  37.2760008  35.9055367  15.2671842  36.3457597  35.8439823  15.4841804
  37.3717480  35.3831320  14.4708483  37.1945557  32.4310180  17.8550084
  37.4552375  33.3455513  17.7459244  38.0162730  31.9634623  18.0046697
  38.6670483  33.8447937  25.0248908  39.3393536  33.6365300  24.3761557
  37.8400269  33.6470023  24.5854141  52.9159744  40.5851988  24.5424242
  53.1095634  41.4897798  24.7883517  52.8160362  40.1259407  25.3762827
  44.5696055  30.4709878  27.0414569  43.9223970  31.1699828  26.9479046
  45.3397070  30.9046022  27.4090817  47.9774853  40.7358731  30.1165122
  47.8260359  40.5069282  29.1995206  47.9679532  41.6929332  30.1296467
  44.7460189  38.3090643  25.1011389  45.6752249  38.4601803  24.9280356
  44.3251219  38.3974664  24.2460035  43.5448521  42.3341308  22.8709927
  43.4059607  41.9660092  23.7435865  42.7563117  42.8488947  22.6993884
  44.1396673  47.4350404  14.2135463  44.3148429  46.9638447  15.0281086
  43.4529461  48.0616170  14.4416724  45.0953736  41.7122910  20.2598764
  44.7603569  41.6723680  21.1556414  44.5957682  41.0467626  19.7869175
  39.0697980  37.1190540  25.7851345  38.9317778  36.3870779  26.3862885
  39.9802904  37.0299440  25.5035533  48.0312928  39.0578945  10.5335824
  47.4142098  38.3325773  10.4368877  47.5629416  39.8188305  10.1902898
  41.6980281  36.8310500  25.2735025  42.4079899  36.1903692  25.2321644
  41.6549589  37.0823395  26.1961206  49.6867059  43.7677853  28.1941604
  49.6279606  43.0837073  27.5272187  50.0886578  44.5096843  27.7422230
  40.4109215  33.8175718  27.0930665  39.8746572  33.3666456  27.7452261
  39.8225923  33.9521626  26.3501129  38.7057758  50.5839767  20.9875323
  38.9454356  51.2158291  21.6654342  37.8626955  50.2327807  21.2740682
  49.6884467  41.7317437  26.4255584  48.8011245  41.3943359  26.5481983
  50.2583018  41.0000468  26.6624349  31.3413614  38.0641529  19.7498635
  32.0284654  37.7503259  19.1619651  31.1861743  38.9682893  19.4765887
  36.1448336  32.9531725  24.1783659  36.0606525  32.3457395  23.4434069
  35.3231042  33.4440744  24.1793155  43.2185620  46.3918889  23.3916827
  43.1455792  47.1973861  23.9036132  42.7763013  46.5910855  22.5664849
  43.0075400  45.6290659  16.9019649  42.2242922  46.1712340  16.9957873
  43.7068145  46.1464639  17.3013890  46.3172050  31.4385289  19.5453854
  46.8140749  30.6855251  19.2254924  45.5459031  31.4749605  18.9797063
  54.1701807  37.1425654  21.1872146  54.1591683  38.0250370  20.8166079
  53.3019187  36.7897205  20.9926683  45.6784304  46.2905723  25.5474986
  46.3912276  46.9253188  25.4750887  45.1874332  46.3869589  24.7314988
  47.4001831  40.1956976  17.1192278  46.4658109  40.3158439  16.9496982
  47.5778499  39.2929443  16.8552287  42.9007019  33.5802672  19.2725539
  42.5304806  33.0273712  19.9606444  43.3966111  32.9760805  18.7200539
  50.7874382  36.0374295  17.6542312  51.2534834  36.8702287  17.5802614
  51.2381882  35.5719277  18.3587570  40.7296217  44.0400167  26.3680557
  41.4305677  44.6736650  26.5209951  40.2591332  44.3814898  25.6076196
  48.8550613  42.3818117  14.6528464  49.1310457  42.2674711  15.5622338
  47.9855112  41.9835601  14.6140637  48.7591045  28.4054882  21.6933213
  47.8454124  28.6359109  21.8615420  49.1884146  28.4893326  22.5447245
  48.5297503  36.5944774  24.1933107  47.8768953  36.8420682  23.5385560
  48.9077883  35.7808912  23.8595584  45.4904677  46.6304467  18.2961277
  45.6727072  45.8126123  18.7589030  46.3137663  46.8472160  17.8586167
  45.8246842  45.5572653  15.5576326  46.3534609  45.0465107  14.9446488
  46.0875062  45.2415183  16.4221859  44.5785076  37.3364585  30.6799144
  43.9025713  37.2358715  31.3501519  45.4012710  37.1803799  31.1435141
  36.3263935  43.5736522  23.3011659  36.9117372  42.8280210  23.4339564
  36.1288774  43.8840479  24.1848323  39.1802590  46.6087769  18.3174102
  38.5112966  47.0933897  17.8338142  39.0415460  46.8556990  19.2317480
  30.9181590  36.1442122  22.0216103  30.9565689  35.6105713  22.8153221
  30.4121883  35.6177328  21.4027080  43.3207859  48.6431513  24.9156760
  43.8726167  48.8063134  25.6805845  43.6614052  49.2335951  24.2436785
  38.2972352  30.9906663  25.5178645  38.3613679  31.8521493  25.1056043
  38.2339472  30.3780664  24.7851003  37.7724625  33.0629795  29.1651679
  38.3996664  32.6806872  29.7789203  36.9152544  32.8443997  29.5307372
  48.1718733  43.4692770  30.7705415  48.7158637  44.0822729  30.2760369
  47.5905578  44.0272349  31.2872428  34.5490168  34.8706224  15.0970034
  34.8443609  33.9616903  15.0437088  33.6478203  34.8493964  14.7751036
  46.4576246  46.5913488  21.9020442  46.3327386  45.7903228  21.3931388
  47.1155337  47.0859682  21.4134412  38.0784415  32.9462221  21.0797583
  37.3571000  33.5598189  20.9405056  38.8677670  33.4819986  21.0014228
  48.5211155  44.3922508  23.5299992  47.5741490  44.2727860  23.4578319
  48.8693928  43.5045006  23.6126254  40.8810728  30.2816647  27.3538234
  41.4045130  30.5278944  28.1164544  40.6623061  31.1136682  26.9341372
  36.2778009  32.5520322  15.2209359  35.9490715  31.6717701  15.0384465
  36.6317380  32.4967991  16.1085748  45.5257588  44.1875225  19.7304345
  45.3782550  43.2591932  19.9111915  46.3511081  44.2095315  19.2461420
  39.3919832  32.8393292  15.5884837  39.7315905  33.3679213  14.8663445
  39.8391953  33.1773698  16.3643403  49.1291710  45.0103783  20.8169217
  50.0538257  44.8046645  20.6793668  48.9607013  44.7620185  21.7258559
  42.0863273  31.2230342  25.0387905  41.7460093  30.4238155  25.4408585
  41.3802279  31.5232053  24.4664738  42.7379745  28.3079655  23.4915228
  43.5605814  27.8340133  23.3694118  42.9817808  29.0870139  23.9913914
  41.3787979  31.3367913  13.7878130  42.0996342  31.7149166  13.2841846
  40.7553284  32.0556790  13.8913107  45.5219102  32.0413062  14.7236462
  45.7382717  32.9237700  14.4225290  45.0413169  31.6499276  13.9942104
  40.2618324  34.9998775  21.3007206  40.1162904  35.3139079  22.1931488
  39.7843527  35.6183676  20.7478105  42.1214707  31.9901323  21.3488096
  42.1076275  31.0942417  21.0120394  42.8387135  31.9971987  21.9826382
  43.9740837  32.4238664  23.3941223  43.7158615  33.3455734  23.3925554
  43.4425878  32.0269098  24.0841688  48.9187026  45.5289451  16.1731309
  49.0923904  44.9635873  15.4205161  49.4115917  46.3290346  15.9910799
  34.7363986  37.5404120  24.2394868  34.1917454  38.3163928  24.3715142
  35.6143336  37.8874924  24.0813989  41.5251602  30.8715704  16.6175666
  41.6467514  29.9432350  16.8166554  41.2353645  30.8854390  15.7053982
  44.3942793  28.5570614  19.7542386  44.4164490  28.6209947  18.7994366
  44.8110852  27.7175123  19.9482892  54.7726417  38.2925874  17.7921609
  55.2157563  37.5433199  17.3940732  53.8952927  38.2836010  17.4095341
  49.9062199  44.8456215  13.2728207  50.6013103  45.4662908  13.4915522
  50.2485349  43.9951566  13.5480585  35.5230008  36.6674016  27.1325024
  34.7811744  36.8156652  27.7189655  35.2022752  36.9282282  26.2691774
  51.8053622  42.2955921  14.8015538  52.3304946  42.6343193  14.0764858
  51.7175974  41.3602936  14.6178672  43.4673670  46.2089994  26.9305414
  43.7760797  45.9639141  27.8028114  44.2649152  46.4136633  26.4424285
  43.4894282  48.3627904  19.1610791  43.0499273  47.8704283  19.8543648
  44.2402399  47.8200872  18.9202866  35.9686621  44.5539445  19.1635419
  36.7944641  44.2543217  18.7834063  35.6180673  43.7847067  19.6125208
  40.9368155  43.9065913  21.2333093  40.3148164  43.2436618  20.9335321
  41.6073021  43.9327045  20.5506740  34.1695226  42.4725771  20.1224353
  33.3327135  42.0447946  19.9408354  34.1418872  42.6658215  21.0595144
  41.0092682  32.3847701  30.8265599  41.0580837  33.2609824  30.4443368
  41.5515196  31.8425094  30.2537242  51.4947528  42.9288824  30.1066736
  50.7043071  42.9112963  29.5671235  51.2580882  43.4677118  30.8615772
  51.6145403  39.7781291  27.4199464  51.6643408  39.6131298  28.3614987
  51.5059326  38.9108550  27.0297345  40.4981661  42.4569836  14.7091553
  40.6469782  43.1405301  14.0558226  41.3048105  42.4374927  15.2241009
  48.9049165  35.7612219  28.7358771  49.8059028  35.6218684  28.4442769
  48.9797140  35.9266674  29.6756948  43.2391970  33.1379074  27.5811957
  42.3695280  33.4312640  27.3094546  43.4751451  33.7219519  28.3019221
  53.1163600  42.1978232  27.6641486  52.8248408  42.5608213  28.5004947
  52.5035731  41.4845241  27.4854818  54.3159282  39.7631112  20.1844056
  55.1506173  40.2020916  20.3481616  54.4518411  39.2869765  19.3652302
  51.3650788  37.3210847  26.1321544  51.8404909  37.5138493  25.3240395
  50.4416353  37.3770033  25.8864928  38.2534294  38.4835014  15.7152622
  38.0080336  37.5797344  15.9132832  38.4230209  38.4852165  14.7732100
  45.9431004  29.3558690  25.0977378  46.4612948  30.0919717  24.7723866
  45.5886137  29.6622684  25.9324137  37.5229942  34.2163372  13.2138784
  36.8299187  34.2907727  12.5578820  37.2781694  33.4523715  13.7360301
  46.1943598  25.7758973  20.6178274  46.4745352  25.1082162  21.2438701
  46.9794205  25.9688069  20.1052938  43.9977067  44.9517967  12.1803301
  43.4251034  45.5708154  11.7273773  44.5709861  45.5017329  12.7143223
  50.0652457  34.1976607  24.3649849  51.0169880  34.2974705  24.3862074
  49.8955907  33.4054876  24.8747934  48.0866836  31.2832190  24.5509250
  47.4916768  31.5637203  23.8555739  47.8016533  31.7726091  25.3225992
  47.2174327  45.2355117  13.3111883  48.1505000  45.1700679  13.5144758
  47.1297540  46.0711384  12.8526416  49.8462343  44.5520987  10.2715831
  49.7675975  44.2180851  11.1651588  50.6672010  45.0442755  10.2707303
  52.5440535  37.4182727  23.4792149  52.5116855  36.4798727  23.6651833
  53.1541158  37.4966763  22.7457974  44.3823865  36.2878780   9.5219353
  45.3282970  36.1584988   9.5907771  44.0038110  35.5493442   9.9988781
  52.6935023  34.2093770  23.5250432  52.1774072  33.4252227  23.3380361
  53.5774972  33.8812487  23.6896952  50.3545750  27.9534786  19.4846245
  50.1570571  27.6449874  20.3689577  50.9645456  28.6796425  19.6144175
  58.3617084  38.4798734  22.6198186  59.0920473  38.2184022  23.1805889
  57.7524030  37.7427455  22.6600254  56.4432382  36.6206596  23.2172637
  55.7165545  36.4862561  22.6089129  56.0279668  36.9283425  24.0229355
  44.2662558  40.3396526  30.9820010  45.1865567  40.5175125  31.1760057
  44.2312141  39.3952571  30.8299709  33.4844723  35.5335119  19.9073285
  33.1647507  34.6800428  19.6147659  32.9378151  35.7483698  20.6631252
  37.2624631  38.2497560  23.6242791  37.4810640  39.1814668  23.6430825
  37.6750404  37.8905535  24.4097595  44.1828848  28.7565646  15.6118480
  43.3729577  28.4112731  15.9873726  44.8713265  28.4473189  16.2006091
  46.1119397  27.8343693  17.2342776  46.6650435  28.2539146  17.8932799
  46.3489483  26.9079441  17.2765732  42.1352496  33.8230766  33.0145540
  42.0349223  34.7725123  32.9457631  41.9174038  33.4949005  32.1421610
  33.3532983  39.1538031  21.8766406  32.6596454  38.7391984  21.3636361
  34.1005974  39.1958567  21.2799825  49.4898204  29.9444218  16.7421441
  48.9096873  30.6029022  16.3599493  49.2234136  29.1221562  16.3308858
  47.9401770  29.3449275  18.9442761  48.4401548  29.4565810  18.1357080
  48.5837378  29.0410328  19.5843569  41.9983766  37.2527905  31.8310602
  41.5150848  38.0528265  32.0374491  42.0844705  37.2635850  30.8778046
  35.2669726  39.0856285  19.7532421  35.2440414  39.1843972  18.8014304
  35.5770362  39.9321436  20.0749587  37.9257103  41.1432440  23.8679036
  38.8800357  41.1116382  23.8008967  37.7269627  40.6823063  24.6829262
  38.5156486  39.7133556  26.4349833  39.3349375  40.2077634  26.4584671
  38.7893293  38.7965524  26.4067401  48.2723082  32.1044308  15.7977789
  47.3848937  32.3893959  15.5797984  48.6877071  31.9438071  14.9505066
  51.6237618  32.1290829  19.5132128  52.3998008  32.6187282  19.7856745
  50.8985752  32.5548883  19.9703998  54.0610176  32.8418448  20.5706069
  54.6554667  32.6014184  19.8599377  54.1336760  32.1225579  21.1979605
  36.2807332  46.6852059  20.8849234  36.1461800  45.9252460  20.3187232
  35.8639394  47.4092959  20.4178022  47.4166295  41.8688983   9.8925809
  48.1202145  42.0738985  10.5083464  46.6928944  42.4365745  10.1574892
  48.2464105  37.6198844  16.0128079  48.1899307  38.0767395  15.1735711
  48.7992448  36.8589529  15.8350922  52.0568911  33.4088576  16.8378199
  51.8005846  33.0085212  17.6686406  51.4321779  34.1232370  16.7128338
  56.3681249  36.1484649  19.3449490  55.8080807  36.2177838  20.1181052
  55.7624753  35.9725634  18.6248986  39.4376458  47.5821376  21.0967676
  39.3208842  48.5266809  20.9946366  38.6168904  47.2794938  21.4853475
  49.3252993  42.3071512  11.9424269  50.1598597  41.8752710  11.7601744
  49.1637336  42.1353526  12.8701163  48.9798885  38.8103625  13.3080608
  48.9247689  38.6447897  12.3669052  48.3544940  39.5179658  13.4642798
  33.7691400  34.0471690  27.1342030  34.4150263  33.5370644  27.6229256
  33.5608551  34.7840371  27.7085456  46.2944792  41.1152537  32.6334171
  47.1635952  41.2893189  32.2720806  45.8151543  41.9346954  32.5109900
  40.4630972  48.2349638  24.3123605  41.3658219  48.2673248  24.6290100
  40.2368342  47.3050089  24.3269940  42.2184574  46.9880625  20.9733683
  41.2680205  46.9882486  20.8598056  42.5217060  46.2413359  20.4569718
  46.1047130  24.9054511  17.1411863  45.3379526  24.3512998  17.2868546
  46.5157835  24.9776380  18.0026015  38.1088891  31.1939307  31.2317045
  38.9720352  30.8376112  31.4420369  37.5354301  30.8553202  31.9192449
  57.9537268  52.8241163  22.0379446  58.5915678  52.7047910  21.3342786
  57.8358111  53.7722007  22.0967398  54.7626974  52.7768591  21.9740970
  54.4245486  52.6609656  21.0861505  55.6316742  52.3759756  21.9541976
  50.6213790  54.6304068  17.9637861  50.0578655  54.5394005  17.1954149
  50.5066185  53.8103972  18.4440354  55.2446757  53.9303443  27.9327176
  55.2335398  53.5356241  27.0607680  55.4067396  53.1969516  28.5260947
  48.1678222  56.1255259  20.8022082  48.9599514  55.7846084  20.3868381
  48.4074872  56.2350234  21.7224235  56.2013348  58.2975035  13.2752326
  55.5501328  58.8829116  12.8886340  56.9957711  58.8281230  13.3347364
  50.1268976  55.3864172  13.6739461  50.8999852  54.8393160  13.5352336
  50.4794374  56.2508422  13.8853922  52.8910225  54.0917403  23.4707719
  53.4873797  53.8673426  22.7564682  52.9485197  53.3502149  24.0733167
  52.4635253  51.5456839  11.3057910  52.7160774  51.0238360  10.5441373
  51.5259812  51.3822984  11.4084594  57.5078536  50.5492617  19.1132654
  58.2941625  50.1312040  18.7623071  57.7717241  51.4538709  19.2814302
  57.6788614  55.9865467  13.8121310  57.0434447  56.0600094  14.5242215
  57.3486020  56.5759066  13.1340390  62.9086963  50.4867850  20.0165632
  63.6412135  49.9167067  20.2503462  62.1526319  50.0989451  20.4572138
  52.1831542  53.4484945  13.5082285  52.0667800  52.7729848  14.1763370
  52.2933802  52.9617318  12.6914438  54.5263083  52.9095092  17.2128975
  54.1621290  52.3825713  17.9241896  55.3830199  52.5193561  17.0395460
  60.4312384  44.1989424  24.4760241  60.0995708  45.0684835  24.2521456
  59.8357997  43.8825708  25.1554271  54.1668570  47.9384991  12.2090323
  54.3342972  48.8065228  12.5760794  53.9765739  48.1012273  11.2851612
  56.9243903  56.4001970  23.8756154  56.6244626  57.3027009  23.7671961
  56.5794963  56.1334153  24.7277306  50.3756385  52.8515767  19.9092858
  49.4506881  52.7191981  20.1170550  50.6240798  53.6309986  20.4062800
  60.3241047  48.9184510  21.5553591  59.4157924  48.8499919  21.2612352
  60.2728643  49.3956455  22.3835416  54.1457791  50.3942649  13.1936990
  54.0257416  50.8399700  14.0322470  53.4510379  50.7427966  12.6350528
  47.7365196  52.4949041  20.7436647  47.8657577  52.7483520  21.6576059
  47.0562647  53.0876749  20.4241302  51.9064683  63.1646291  16.8427121
  51.8288713  64.1154116  16.9215602  51.3026327  62.8192163  17.5002048
  54.3981913  50.3374156  29.4988488  53.6215247  50.8968076  29.4891353
  55.0372476  50.8230939  30.0203358  62.1902693  47.1200949  23.3331465
  61.5477074  47.4133482  22.6871259  61.6857622  47.0053869  24.1384661
  59.8442857  50.8664122  14.0217324  60.7560713  51.0991509  13.8465022
  59.3352504  51.4501166  13.4592403  58.1283625  55.2888750  27.6578617
  58.5366981  54.8471160  26.9133249  57.4060886  54.7141377  27.9112810
  54.4814695  50.2261357  25.0312174  55.3275890  50.6500770  25.1746823
  54.4213332  49.5694981  25.7250737  58.4512439  55.8489940  21.4130905
  57.8221302  56.0135655  20.7106973  58.0638101  56.2631550  22.1841870
  62.3301671  56.7844378  18.7675269  61.6452709  57.1643280  18.2172303
  62.4145521  57.3939705  19.5007217  57.6314140  47.8865725  26.6893347
  57.3875072  48.6407785  26.1527623  57.9074071  48.2651073  27.5240594
  59.5852603  54.4304337  25.3670613  59.7969498  55.0736097  24.6904994
  59.5382351  53.5966654  24.8992543  57.1878832  47.0422158  22.2707185
  56.3263311  47.3403412  22.5623922  57.2141266  47.2592557  21.3388218
  54.0040401  55.5864349  18.6780991  54.4678747  55.8652052  17.8885613
  53.7397199  54.6847793  18.4954081  50.8964482  55.1335830  21.6160754
  51.4665839  55.5623098  20.9778238  51.4872594  54.8518415  22.3144940
  52.9409287  51.7087501  15.4870556  53.6433331  52.1608545  15.9544482
  52.6089916  51.0671320  16.1150449  51.3889649  50.2999258  29.8621765
  50.7588309  50.9815538  30.0957162  51.2825737  50.1882339  28.9174903
  46.6834621  49.9671054  20.7887689  45.8933675  50.2228582  20.3127800
  47.1745869  50.7819391  20.8939730  60.6998431  57.3076293  23.5392970
  61.5215875  56.9056480  23.2575652  60.6960834  57.2044527  24.4909086
  48.6349367  50.3315633  17.7471166  47.8380530  50.4434327  18.2654662
  48.4074959  50.6702285  16.8812057  54.4655034  56.8560336  25.6953681
  54.5299467  57.3180743  26.5311852  53.7565958  56.2257701  25.8235990
  44.9672324  50.2201544  23.2202680  45.2180363  51.1048554  23.4860256
  45.5031873  50.0406146  22.4477772  68.7904424  53.6515041  19.8877942
  68.0368132  53.0822439  19.7321946  68.9251965  53.6177706  20.8348576
  54.1803052  58.5228444  15.5632661  54.0448727  59.3679979  15.9917509
  54.7212864  58.7247721  14.7998595  47.6332449  56.0403882  16.1360586
  48.1456970  56.8347132  16.2866151  48.2855162  55.3430172  16.0694188
  49.4427334  59.1569638  18.2183339  49.6193962  60.0787603  18.0304323
  50.2384168  58.8428057  18.6477719  53.5838353  46.0177902  29.8167273
  54.3248066  46.6185056  29.7371735  53.8156275  45.2755540  29.2585315
  57.9052766  59.4254810  27.7214404  57.8871242  60.2463691  27.2294673
  58.8272686  59.3008885  27.9464545  57.5295515  42.0459005  24.0931554
  57.1859785  42.9360647  24.0170665  57.8974478  41.8560663  23.2301139
  45.5981366  54.3692536  16.9120157  46.4356588  54.7789544  16.6953864
  45.7759634  53.4291978  16.8820350  57.4945798  52.0367617  12.6003990
  56.9792422  52.8072221  12.8392377  57.2223107  51.3632753  13.2237051
  55.0792909  46.8817317  17.6589228  54.2234506  46.4924168  17.4794867
  55.4919861  46.9609278  16.7989013  56.6092056  44.4163661  22.0580788
  56.1056851  44.3793796  21.2448593  56.9022663  45.3256403  22.1177444
  52.8534942  44.5002390  21.0646969  53.7187939  44.3045199  20.7052859
  52.9212451  44.2712742  21.9916326  62.4680072  54.7899971  14.5357163
  61.6909515  54.4511131  14.0912325  63.1471553  54.7952594  13.8612128
  57.2832101  49.9094709  14.4263771  56.9782237  50.2240858  15.2773914
  58.2362544  49.9876129  14.4691104  55.7278533  56.0684932  16.0756725
  55.1999895  55.3337692  15.7629962  55.2266036  56.8459608  15.8296693
  60.7071379  54.2633952  21.1923771  60.0495054  54.9533214  21.2803900
  61.5111778  54.6530384  21.5357757  50.4597261  46.7304598  18.4363336
  51.0341013  46.5079780  17.7036529  51.0468243  46.7993293  19.1891938
  59.5176838  52.6178325  19.2427713  60.0308720  53.2508317  19.7449422
  60.1678062  52.0179521  18.8771073  50.7866848  48.7609059  12.4559221
  49.9504160  49.0983746  12.7768496  50.6471618  48.6258039  11.5186358
  52.7619929  43.6045847  17.1638406  52.1084341  43.2894864  16.5395020
  52.7200403  42.9821588  17.8898229  53.8731133  53.8865142   9.0791698
  52.9658195  53.6554396   9.2782847  54.3702165  53.0902761   9.2665679
  56.7799212  62.5962649  11.9988384  56.1060911  62.8994346  12.6073342
  57.1665034  63.3991730  11.6493841  55.9957669  50.0927781  21.4886053
  55.0780230  50.3142728  21.3307741  56.4117813  50.1674091  20.6297761
  56.7792717  51.4919196  16.6188734  57.5264536  52.0040594  16.3095856
  57.0484306  51.1703249  17.4793127  55.0519367  53.9877737  13.6015688
  54.1430586  53.7036770  13.6988158  55.0814451  54.4076816  12.7418995
  60.2838634  57.5984327  17.3706855  59.8300961  56.7575236  17.4272046
  59.6532601  58.2345725  17.7081636  59.2271554  48.5276313  18.6007523
  58.4894311  48.0153699  18.9317765  59.4798327  48.0876694  17.7890800
  58.7271574  59.4360823  18.3056674  59.0194548  59.9965880  17.5869039
  59.2370194  59.7289384  19.0609833  59.3283181  41.3052565  19.1949292
  59.6342058  40.4449928  18.9075207  60.0535786  41.8970185  18.9948286
  45.6207537  51.7083251  17.5830890  45.4231937  51.1152612  16.8581957
  45.0654201  51.4035461  18.3006829  53.6004261  51.6006358  19.7025483
  53.6552871  50.6480194  19.6267960  52.7895463  51.7565797  20.1866782
  54.7495455  55.5286481  10.9403766  54.3114885  54.8122340  10.4809404
  55.4905896  55.7562596  10.3788858  51.5396621  50.2183417  17.4615862
  50.7264486  50.5177588  17.8681054  52.0355615  49.8239106  18.1790344
  53.6905199  60.2141174  19.3950127  53.6481377  60.4402021  18.4658659
  54.6067898  59.9804549  19.5435928  57.1370832  50.6825242  26.2930756
  57.4920220  50.9096715  27.1525222  57.7842964  51.0143619  25.6708011
  62.8668569  53.8043678  16.9980085  62.7286468  53.9945274  16.0701274
  62.5104788  54.5663061  17.4548136  51.0310696  47.7901773  23.0777097
  51.6710075  47.6490532  22.3800060  50.1988226  47.5036286  22.7015699
  62.8937949  55.8720205  22.0091356  63.3274456  55.7795494  22.8574410
  63.6069530  55.8477705  21.3711372  51.8070999  57.0904203  19.1912089
  52.6011598  56.5954523  18.9894664  51.0962692  56.5622066  18.8279795
  56.6265844  59.4722299  23.5424457  56.6802866  60.0413235  24.3102173
  55.7580625  59.6424184  23.1778494  48.1153763  51.2347285  15.2671842
  47.1851351  51.1731741  15.4841804  48.2111235  50.7123238  14.4708483
  48.0339312  47.7602098  17.8550084  48.2946129  48.6747431  17.7459244
  48.8556484  47.2926540  18.0046697  49.5064237  49.1739855  25.0248908
  50.1787291  48.9657217  24.3761557  48.6794024  48.9761941  24.5854141
  63.7553499  55.9143905  24.5424242  63.9489389  56.8189716  24.7883517
  63.6554117  55.4551325  25.3762827  55.4089809  45.8001796  27.0414569
  54.7617724  46.4991746  26.9479046  56.1790825  46.2337940  27.4090817
  58.8168607  56.0650648  30.1165122  58.6654114  55.8361200  29.1995206
  58.8073287  57.0221250  30.1296467  55.5853944  53.6382561  25.1011389
  56.5146004  53.7893721  24.9280356  55.1644974  53.7266582  24.2460035
  54.3842275  57.6633225  22.8709927  54.2453361  57.2952010  23.7435865
  53.5956872  58.1780865  22.6993884  54.9790427  62.7642322  14.2135463
  55.1542183  62.2930365  15.0281086  54.2923215  63.3908088  14.4416724
  55.9347491  57.0414828  20.2598764  55.5997323  57.0015598  21.1556414
  55.4351436  56.3759544  19.7869175  49.9091735  52.4482458  25.7851345
  49.7711533  51.7162697  26.3862885  50.8196658  52.3591358  25.5035533
  58.8706682  54.3870862  10.5335824  58.2535853  53.6617691  10.4368877
  58.4023171  55.1480223  10.1902898  52.5374035  52.1602417  25.2735025
  53.2473654  51.5195610  25.2321644  52.4943343  52.4115312  26.1961206
  60.5260814  59.0969771  28.1941604  60.4673360  58.4128991  27.5272187
  60.9280332  59.8388761  27.7422230  51.2502969  49.1467635  27.0930665
  50.7140326  48.6958374  27.7452261  50.6619678  49.2813544  26.3501129
  49.5451513  65.9131685  20.9875323  49.7848111  66.5450209  21.6654342
  48.7020709  65.5619725  21.2740682  50.6605228  48.6056287   9.6557128
  49.7834694  48.4845087   9.2919375  51.1362981  47.8142365   9.4036017
  60.5278221  57.0609355  26.4255584  59.6405000  56.7235276  26.5481983
  61.0976772  56.3292386  26.6624349  42.1807368  53.3933446  19.7498635
  42.8678408  53.0795176  19.1619651  42.0255497  54.2974811  19.4765887
  46.9842090  48.2823643  24.1783659  46.9000279  47.6749313  23.4434069
  46.1624797  48.7732661  24.1793155  54.0579375  61.7210807  23.3916827
  53.9849546  62.5265779  23.9036132  53.6156768  61.9202773  22.5664849
  53.8469154  60.9582577  16.9019649  53.0636676  61.5004257  16.9957873
  54.5461899  61.4756557  17.3013890  57.1565804  46.7677207  19.5453854
  57.6534504  46.0147169  19.2254924  56.3852786  46.8041523  18.9797063
  65.0095562  52.4717572  21.1872146  64.9985438  53.3542287  20.8166079
  64.1412941  52.1189123  20.9926683  56.5178058  61.6197641  25.5474986
  57.2306030  62.2545106  25.4750887  56.0268087  61.7161507  24.7314988
  58.2395585  55.5248894  17.1192278  57.3051864  55.6450356  16.9496982
  58.4172253  54.6221360  16.8552287  53.7400773  48.9094589  19.2725539
  53.3698561  48.3565630  19.9606444  54.2359866  48.3052723  18.7200539
  61.6268136  51.3666213  17.6542312  62.0928589  52.1994205  17.5802614
  62.0775637  50.9011195  18.3587570  59.6944367  57.7110034  14.6528464
  59.9704211  57.5966629  15.5622338  58.8248866  57.3127519  14.6140637
  59.5984799  43.7346800  21.6933213  58.6847879  43.9651027  21.8615420
  60.0277901  43.8185244  22.5447245  59.3691258  51.9236692  24.1933107
  58.7162708  52.1712599  23.5385560  59.7471638  51.1100830  23.8595584
  56.3298431  61.9596385  18.2961277  56.5120826  61.1418041  18.7589030
  57.1531417  62.1764077  17.8586167  56.6640597  60.8864570  15.5576326
  57.1928363  60.3757025  14.9446488  56.9268817  60.5707100  16.4221859
  55.4178831  52.6656503  30.6799144  54.7419468  52.5650632  31.3501519
  56.2406465  52.5095717  31.1435141  47.1657690  58.9028440  23.3011659
  47.7511127  58.1572127  23.4339564  46.9682528  59.2132396  24.1848323
  50.0196345  61.9379687  18.3174102  49.3506720  62.4225815  17.8338142
  49.8809215  62.1848907  19.2317480  41.7575344  51.4734040  22.0216103
  41.7959444  50.9397630  22.8153221  41.2515637  50.9469245  21.4027080
  54.1601614  63.9723430  24.9156760  54.7119922  64.1355052  25.6805845
  54.5007807  64.5627868  24.2436785  49.1366107  46.3198580  25.5178645
  49.2007433  47.1813411  25.1056043  49.0733227  45.7072582  24.7851003
  48.6118379  48.3921713  29.1651679  49.2390418  48.0098790  29.7789203
  47.7546298  48.1735915  29.5307372  59.0112488  58.7984688  30.7705415
  59.5552392  59.4114646  30.2760369  58.4299333  59.3564266  31.2872428
  45.3883922  50.1998142  15.0970034  45.6837363  49.2908820  15.0437088
  44.4871958  50.1785881  14.7751036  57.2970001  61.9205406  21.9020442
  57.1721140  61.1195146  21.3931388  57.9549092  62.4151599  21.4134412
  48.9178169  48.2754138  21.0797583  48.1964755  48.8890106  20.9405056
  49.7071425  48.8111903  21.0014228  59.3604909  59.7214426  23.5299992
  58.4135245  59.6019777  23.4578319  59.7087682  58.8336924  23.6126254
  51.7204483  45.6108565  27.3538234  52.2438884  45.8570862  28.1164544
  51.5016816  46.4428600  26.9341372  47.1171764  47.8812240  15.2209359
  46.7884470  47.0009619  15.0384465  47.4711134  47.8259908  16.1085748
  56.3651342  59.5167142  19.7304345  56.2176305  58.5883850  19.9111915
  57.1904836  59.5387233  19.2461420  50.2313587  48.1685209  15.5884837
  50.5709659  48.6971131  14.8663445  50.6785707  48.5065616  16.3643403
  59.9685464  60.3395701  20.8169217  60.8932012  60.1338562  20.6793668
  59.8000768  60.0912102  21.7258559  52.9257028  46.5522260  25.0387905
  52.5853848  45.7530073  25.4408585  52.2196034  46.8523971  24.4664738
  53.5773499  43.6371573  23.4915228  54.3999569  43.1632051  23.3694118
  53.8211563  44.4162056  23.9913914  52.2181734  46.6659831  13.7878130
  52.9390096  47.0441084  13.2841846  51.5947038  47.3848708  13.8913107
  56.3612857  47.3704980  14.7236462  56.5776471  48.2529618  14.4225290
  55.8806924  46.9791193  13.9942104  51.1012078  50.3290693  21.3007206
  50.9556659  50.6430996  22.1931488  50.6237282  50.9475593  20.7478105
  52.9608461  47.3193241  21.3488096  52.9470030  46.4234334  21.0120394
  53.6780889  47.3263905  21.9826382  54.8134592  47.7530581  23.3941223
  54.5552370  48.6747652  23.3925554  54.2819632  47.3561016  24.0841688
  59.7580781  60.8581368  16.1731309  59.9317658  60.2927791  15.4205161
  60.2509672  61.6582263  15.9910799  45.5757740  52.8696038  24.2394868
  45.0311208  53.6455846  24.3715142  46.4537090  53.2166842  24.0813989
  52.3645357  46.2007621  16.6175666  52.4861268  45.2724268  16.8166554
  52.0747399  46.2146307  15.7053982  55.2336547  43.8862532  19.7542386
  55.2558244  43.9501865  18.7994366  55.6504606  43.0467041  19.9482892
  65.6120172  53.6217791  17.7921609  66.0551318  52.8725117  17.3940732
  64.7346682  53.6127928  17.4095341  60.7455953  60.1748133  13.2728207
  61.4406858  60.7954826  13.4915522  61.0879103  59.3243484  13.5480585
  62.6447376  57.6247838  14.8015538  63.1698700  57.9635111  14.0764858
  62.5569729  56.6894854  14.6178672  54.3288037  63.6919822  19.1610791
  53.8893027  63.1996200  19.8543648  55.0796154  63.1492789  18.9202866
  46.8080376  59.8831363  19.1635419  47.6338396  59.5835134  18.7834063
  46.4574428  59.1138985  19.6125208  51.7761909  59.2357831  21.2333093
  51.1541918  58.5728536  20.9335321  52.4466776  59.2618963  20.5506740
  45.0088981  57.8017689  20.1224353  44.1720889  57.3739863  19.9408354
  44.9812626  57.9950132  21.0595144  51.8486437  47.7139619  30.8265599
  51.8974592  48.5901742  30.4443368  52.3908951  47.1717012  30.2537242
  62.3341282  58.2580742  30.1066736  61.5436826  58.2404881  29.5671235
  62.0974637  58.7969036  30.8615772  62.4539157  55.1073208  27.4199464
  62.5037162  54.9423216  28.3614987  62.3453081  54.2400467  27.0297345
  51.3375416  57.7861754  14.7091553  51.4863536  58.4697219  14.0558226
  52.1441859  57.7666844  15.2241009  59.7442920  51.0904136  28.7358771
  60.6452782  50.9510601  28.4442769  59.8190894  51.2558591  29.6756948
  54.0785725  48.4670991  27.5811957  53.2089034  48.7604557  27.3094546
  54.3145205  49.0511436  28.3019221  63.9557354  57.5270150  27.6641486
  63.6642162  57.8900130  28.5004947  63.3429485  56.8137158  27.4854818
  65.1553036  55.0923030  20.1844056  65.9899928  55.5312834  20.3481616
  65.2912165  54.6161683  19.3652302  62.2044542  52.6502765  26.1321544
  62.6798664  52.8430411  25.3240395  61.2810108  52.7061950  25.8864928
  49.0928049  53.8126932  15.7152622  48.8474091  52.9089262  15.9132832
  49.2623963  53.8144082  14.7732100  56.7824759  44.6850608  25.0977378
  57.3006703  45.4211635  24.7723866  56.4279892  44.9914601  25.9324137
  48.3623696  49.5455289  13.2138784  47.6692941  49.6199644  12.5578820
  48.1175448  48.7815633  13.7360301  57.0337353  41.1050891  20.6178274
  57.3139107  40.4374080  21.2438701  57.8187960  41.2979986  20.1052938
  54.8370821  60.2809885  12.1803301  54.2644789  60.9000072  11.7273773
  55.4103615  60.8309246  12.7143223  60.9046211  49.5268525  24.3649849
  61.8563634  49.6266622  24.3862074  60.7349662  48.7346793  24.8747934
  58.9260591  46.6124108  24.5509250  58.3310523  46.8929121  23.8555739
  58.6410287  47.1018009  25.3225992  58.0568081  60.5647035  13.3111883
  58.9898754  60.4992596  13.5144758  57.9691294  61.4003302  12.8526416
  60.6856098  59.8812905  10.2715831  60.6069729  59.5472769  11.1651588
  61.5065765  60.3734673  10.2707303  63.3834289  52.7474644  23.4792149
  63.3510609  51.8090645  23.6651833  63.9934913  52.8258681  22.7457974
  55.2217620  51.6170697   9.5219353  56.1676725  51.4876905   9.5907771
  54.8431865  50.8785359   9.9988781  63.5328778  49.5385688  23.5250432
  63.0167826  48.7544144  23.3380361  64.4168726  49.2104404  23.6896952
  61.1939504  43.2826703  19.4846245  60.9964326  42.9741792  20.3689577
  61.8039210  44.0088342  19.6144175  69.2010839  53.8090651  22.6198186
  69.9314227  53.5475939  23.1805889  68.5917784  53.0719373  22.6600254
  67.2826136  51.9498514  23.2172637  66.5559300  51.8154479  22.6089129
  66.8673423  52.2575342  24.0229355  53.4060537  49.5420674   9.4574238
  52.4991993  49.2453786   9.5336952  53.6836518  49.2450492   8.5908525
  44.3238477  50.8627037  19.9073285  44.0041262  50.0092345  19.6147659
  43.7771906  51.0775615  20.6631252  48.1018385  53.5789478  23.6242791
  48.3204395  54.5106586  23.6430825  48.5144159  53.2197453  24.4097595
  55.0222603  44.0857563  15.6118480  54.2123331  43.7404648  15.9873726
  55.7107020  43.7765107  16.2006091  56.9513151  43.1635610  17.2342776
  57.5044190  43.5831064  17.8932799  57.1883237  42.2371358  17.2765732
  52.9746250  49.1522684  33.0145540  52.8742977  50.1017041  32.9457631
  52.7567792  48.8240923  32.1421610  52.1759322  46.4007609   9.5986218
  53.0378486  46.7262507   9.8582035  52.3609666  45.6139105   9.0859283
  44.1926737  54.4829949  21.8766406  43.4990209  54.0683901  21.3636361
  44.9399728  54.5250485  21.2799825  60.3291958  45.2736135  16.7421441
  59.7490627  45.9320939  16.3599493  60.0627891  44.4513480  16.3308858
  58.7795525  44.6741193  18.9442761  59.2795303  44.7857728  18.1357080
  59.4231133  44.3702246  19.5843569  46.1063480  54.4148202  19.7532421
  46.0834168  54.5135890  18.8014304  46.4164117  55.2613353  20.0749587
  48.7650858  56.4724357  23.8679036  49.7194111  56.4408300  23.8008967
  48.5663381  56.0114981  24.6829262  49.3550240  55.0425473  26.4349833
  50.1743129  55.5369552  26.4584671  49.6287048  54.1257442  26.4067401
  59.1116836  47.4336226  15.7977789  58.2242691  47.7185876  15.5797984
  59.5270825  47.2729989  14.9505066  62.4631372  47.4582747  19.5132128
  63.2391762  47.9479199  19.7856745  61.7379507  47.8840801  19.9703998
  64.9003931  48.1710366  20.5706069  65.4948422  47.9306102  19.8599377
  64.9730515  47.4517497  21.1979605  47.1201087  62.0143977  20.8849234
  46.9855555  61.2544378  20.3187232  46.7033149  62.7384877  20.4178022
  58.2560050  57.1980900   9.8925809  58.9595900  57.4030903  10.5083464
  57.5322698  57.7657662  10.1574892  59.0857860  52.9490762  16.0128079
  59.0293061  53.4059313  15.1735711  59.6386202  52.1881446  15.8350922
  62.8962666  48.7380494  16.8378199  62.6399600  48.3377129  17.6686406
  62.2715534  49.4524288  16.7128338  67.2075004  51.4776567  19.3449490
  66.6474562  51.5469756  20.1181052  66.6018507  51.3017551  18.6248986
  50.2770213  62.9113294  21.0967676  50.1602597  63.8558726  20.9946366
  49.4562659  62.6086855  21.4853475  60.1646747  57.6363430  11.9424269
  60.9992351  57.2044628  11.7601744  60.0031090  57.4645443  12.8701163
  59.8192639  54.1395543  13.3080608  59.7641443  53.9739814  12.3669052
  59.1938695  54.8471576  13.4642798  44.6085154  49.3763607  27.1342030
  45.2544018  48.8662561  27.6229256  44.4002305  50.1132289  27.7085456
  53.1288765  43.6403652  12.8865927  53.1167435  44.5845492  13.0434197
  54.0212187  43.4573797  12.5925388  51.3024727  63.5641556  24.3123605
  52.2051973  63.5965166  24.6290100  51.0762097  62.6342007  24.3269940
  53.0578329  62.3172542  20.9733683  52.1073960  62.3174404  20.8598056
  53.3610815  61.5705277  20.4569718  56.9440884  40.2346429  17.1411863
  56.1773280  39.6804915  17.2868546  57.3551589  40.3068297  18.0026015
  68.7931022  68.1533081  22.0379446  69.4309432  68.0339828  21.3342786
  68.6751865  69.1013925  22.0967398  65.6020728  68.1060509  21.9740970
  65.2639240  67.9901574  21.0861505  66.4710497  67.7051674  21.9541976
  61.4607544  69.9595985  17.9637861  60.8972409  69.8685922  17.1954149
  61.3459939  69.1395890  18.4440354  66.0840511  69.2595361  27.9327176
  66.0729152  68.8648159  27.0607680  66.2461151  68.5261433  28.5260947
  59.0071976  71.4547177  20.8022082  59.7993268  71.1138002  20.3868381
  59.2468626  71.5642152  21.7224235  67.0407103  73.6266953  13.2752326
  66.3895083  74.2121033  12.8886340  67.8351466  74.1573148  13.3347364
  60.9662730  70.7156090  13.6739461  61.7393606  70.1685077  13.5352336
  61.3188129  71.5800339  13.8853922  62.8047773  72.0432472  26.8806360
  62.5137639  72.9478103  26.7653026  63.4404757  72.0849000  27.5950429
  63.7303979  69.4209321  23.4707719  64.3267552  69.1965343  22.7564682
  63.7878951  68.6794066  24.0733167  63.3029008  66.8748756  11.3057910
  63.5554529  66.3530278  10.5441373  62.3653567  66.7114902  11.4084594
  68.3472291  65.8784535  19.1132654  69.1335380  65.4603958  18.7623071
  68.6110995  66.7830627  19.2814302  68.5182368  71.3157385  13.8121310
  67.8828201  71.3892011  14.5242215  68.1879774  71.9050984  13.1340390
  73.7480718  65.8159768  20.0165632  74.4805890  65.2458985  20.2503462
  72.9920074  65.4281368  20.4572138  63.0225297  68.7776862  13.5082285
  62.9061555  68.1021766  14.1763370  63.1327556  68.2909236  12.6914438
  65.3656838  68.2387009  17.2128975  65.0015045  67.7117630  17.9241896
  66.2223953  67.8485478  17.0395460  71.2706138  59.5281342  24.4760241
  70.9389463  60.3976753  24.2521456  70.6751752  59.2117626  25.1554271
  65.0062325  63.2676909  12.2090323  65.1736727  64.1357145  12.5760794
  64.8159494  63.4304191  11.2851612  67.7637658  71.7293888  23.8756154
  67.4638381  72.6318927  23.7671961  67.4188717  71.4626071  24.7277306
  61.2150139  68.1807685  19.9092858  60.2900636  68.0483899  20.1170550
  61.4634552  68.9601904  20.4062800  71.1634801  64.2476428  21.5553591
  70.2551679  64.1791837  21.2612352  71.1122397  64.7248373  22.3835416
  64.9851545  65.7234566  13.1936990  64.8651171  66.1691617  14.0322470
  64.2904134  66.0719884  12.6350528  58.5758950  67.8240958  20.7436647
  58.7051331  68.0775437  21.6576059  57.8956402  68.4168666  20.4241302
  62.7458437  78.4938208  16.8427121  62.6682467  79.4446033  16.9215602
  62.1420081  78.1484081  17.5002048  65.2375667  65.6666074  29.4988488
  64.4609001  66.2259994  29.4891353  65.8766230  66.1522857  30.0203358
  73.0296448  62.4492866  23.3331465  72.3870828  62.7425400  22.6871259
  72.5251376  62.3345787  24.1384661  70.6836612  66.1956040  14.0217324
  71.5954468  66.4283426  13.8465022  70.1746259  66.7793084  13.4592403
  63.4922040  68.4751527  29.0606455  64.2336724  69.0136571  28.7841279
  62.7859025  69.1017816  29.2178007  68.9677379  70.6180668  27.6578617
  69.3760735  70.1763078  26.9133249  68.2454641  70.0433295  27.9112810
  65.3208449  65.5553274  25.0312174  66.1669644  65.9792688  25.1746823
  65.2607087  64.8986899  25.7250737  69.2906194  71.1781858  21.4130905
  68.6615056  71.3427572  20.7106973  68.9031856  71.5923468  22.1841870
  73.1695426  72.1136296  18.7675269  72.4846464  72.4935197  18.2172303
  73.2539275  72.7231623  19.5007217  68.4707895  63.2157643  26.6893347
  68.2268826  63.9699703  26.1527623  68.7467825  63.5942990  27.5240594
  70.4246357  69.7596255  25.3670613  70.6363253  70.4028015  24.6904994
  70.3776106  68.9258572  24.8992543  68.0272586  62.3714076  22.2707185
  67.1657065  62.6695329  22.5623922  68.0535021  62.5884475  21.3388218
  64.8434156  70.9156266  18.6780991  65.3072501  71.1943969  17.8885613
  64.5790954  70.0139711  18.4954081  61.7358237  70.4627748  21.6160754
  62.3059594  70.8915016  20.9778238  62.3266349  70.1810332  22.3144940
  63.7803042  67.0379419  15.4870556  64.4827085  67.4900462  15.9544482
  63.4483670  66.3963237  16.1150449  62.2283403  65.6291175  29.8621765
  61.5982064  66.3107456  30.0957162  62.1219491  65.5174257  28.9174903
  57.5228376  65.2962971  20.7887689  56.7327430  65.5520500  20.3127800
  58.0139623  66.1111309  20.8939730  71.5392185  72.6368210  23.5392970
  72.3609629  72.2348398  23.2575652  71.5354588  72.5336445  24.4909086
  59.4743121  65.6607550  17.7471166  58.6774284  65.7726245  18.2654662
  59.2468713  65.9994203  16.8812057  65.3048789  72.1852254  25.6953681
  65.3693221  72.6472661  26.5311852  64.5959713  71.5549619  25.8235990
  55.8066079  65.5493462  23.2202680  56.0574117  66.4340472  23.4860256
  56.3425627  65.3698063  22.4477772  79.6298178  68.9806959  19.8877942
  78.8761887  68.4114357  19.7321946  79.7645720  68.9469623  20.8348576
  65.0196806  73.8520361  15.5632661  64.8842481  74.6971897  15.9917509
  65.5606619  74.0539639  14.7998595  61.5064146  59.9311941  32.2247016
  61.1131092  59.3778140  32.8994660  62.3230286  60.2422520  32.6153534
  58.4726204  71.3695799  16.1360586  58.9850724  72.1639049  16.2866151
  59.1248917  70.6722090  16.0694188  60.2821089  74.4861556  18.2183339
  60.4587717  75.4079520  18.0304323  61.0777922  74.1719975  18.6477719
  64.4232107  61.3469820  29.8167273  65.1641820  61.9476973  29.7371735
  64.6550030  60.6047458  29.2585315  59.5673445  66.5326187  28.0945502
  59.4526960  65.6311445  28.3952601  58.7117963  66.7789884  27.7430319
  66.6465283  74.4743928  29.6933003  66.2029137  73.6880306  29.3753908
  67.3082496  74.6623078  29.0276894  61.4052404  76.0039729  24.2193682
  61.9559829  75.8756793  23.4470675  60.5663880  76.3034618  23.8688574
  68.7446521  74.7546728  27.7214404  68.7264996  75.5755609  27.2294673
  69.6666441  74.6300803  27.9464545  65.2019575  72.2690857  28.5637913
  65.7347912  71.5079145  28.3337221  64.6733656  71.9764509  29.3062067
  68.3689270  57.3750923  24.0931554  68.0253539  58.2652565  24.0170665
  68.7368233  57.1852581  23.2301139  56.4375121  69.6984454  16.9120157
  57.2750343  70.1081462  16.6953864  56.6153388  68.7583896  16.8820350
  68.3339553  67.3659534  12.6003990  67.8186176  68.1364139  12.8392377
  68.0616861  66.6924670  13.2237051  65.9186664  62.2109235  17.6589228
  65.0628260  61.8216085  17.4794867  66.3313615  62.2901196  16.7989013
  67.4485810  59.7455578  22.0580788  66.9450606  59.7085713  21.2448593
  67.7416417  60.6548321  22.1177444  63.6928696  59.8294308  21.0646969
  64.5581693  59.6337117  20.7052859  63.7606205  59.6004660  21.9916326
  73.3073827  70.1191889  14.5357163  72.5303270  69.7803048  14.0912325
  73.9865308  70.1244512  13.8612128  68.1225856  65.2386626  14.4263771
  67.8175991  65.5532775  15.2773914  69.0756298  65.3168046  14.4691104
  66.5672288  71.3976850  16.0756725  66.0393649  70.6629609  15.7629962
  66.0659790  72.1751526  15.8296693  71.5465134  69.5925870  21.1923771
  70.8888808  70.2825131  21.2803900  72.3505533  69.9822302  21.5357757
  61.2991015  62.0596516  18.4363336  61.8734767  61.8371697  17.7036529
  61.8861998  62.1285210  19.1891938  70.3570593  67.9470243  19.2427713
  70.8702474  68.5800235  19.7449422  71.0071816  67.3471438  18.8771073
  61.6260602  64.0900977  12.4559221  60.7897915  64.4275663  12.7768496
  61.4865372  63.9549957  11.5186358  63.6013683  58.9337765  17.1638406
  62.9478095  58.6186782  16.5395020  63.5594157  58.3113505  17.8898229
  64.7124888  69.2157060   9.0791698  63.8051950  68.9846313   9.2782847
  65.2095920  68.4194679   9.2665679  67.6192967  77.9254567  11.9988384
  66.9454666  78.2286264  12.6073342  68.0058789  78.7283647  11.6493841
  66.8351423  65.4219698  21.4886053  65.9173985  65.6434645  21.3307741
  67.2511567  65.4966009  20.6297761  67.6186471  66.8211114  16.6188734
  68.3658290  67.3332511  16.3095856  67.8878061  66.4995167  17.4793127
  65.8913121  69.3169655  13.6015688  64.9824341  69.0328688  13.6988158
  65.9208205  69.7368733  12.7418995  71.1232389  72.9276244  17.3706855
  70.6694716  72.0867154  17.4272046  70.4926355  73.5637643  17.7081636
  70.0665308  63.8568230  18.6007523  69.3288065  63.3445616  18.9317765
  70.3192082  63.4168612  17.7890800  69.5665328  74.7652741  18.3056674
  69.8588302  75.3257798  17.5869039  70.0763949  75.0581302  19.0609833
  70.1676936  56.6344482  19.1949292  70.4735812  55.7741846  18.9075207
  70.8929540  57.2262102  18.9948286  56.4601292  67.0375169  17.5830890
  56.2625692  66.4444530  16.8581957  55.9047956  66.7327379  18.3006829
  64.4398015  66.9298275  19.7025483  64.4946625  65.9772112  19.6267960
  63.6289217  67.0857714  20.1866782  65.5889209  70.8578398  10.9403766
  65.1508639  70.1414257  10.4809404  66.3299650  71.0854513  10.3788858
  62.3790375  65.5475335  17.4615862  61.5658241  65.8469506  17.8681054
  62.8749369  65.1531024  18.1790344  64.5298953  75.5433092  19.3950127
  64.4875132  75.7693938  18.4658659  65.4461652  75.3096467  19.5435928
  67.9764587  66.0117160  26.2930756  68.3313975  66.2388633  27.1525222
  68.6236718  66.3435536  25.6708011  73.7062324  69.1335595  16.9980085
  73.5680223  69.3237191  16.0701274  73.3498543  69.8954978  17.4548136
  61.8704450  63.1193691  23.0777097  62.5103829  62.9782450  22.3800060
  61.0381981  62.8328204  22.7015699  73.7331704  71.2012122  22.0091356
  74.1668210  71.1087412  22.8574410  74.4463284  71.1769623  21.3711372
  62.6464754  72.4196121  19.1912089  63.4405352  71.9246441  18.9894664
  61.9356446  71.8913984  18.8279795  67.4659598  74.8014217  23.5424457
  67.5196621  75.3705153  24.3102173  66.5974380  74.9716102  23.1778494
  58.9547517  66.5639203  15.2671842  58.0245106  66.5023658  15.4841804
  59.0504989  66.0415156  14.4708483  58.8733066  63.0894016  17.8550084
  59.1339884  64.0039349  17.7459244  59.6950239  62.6218458  18.0046697
  60.3457992  64.5031773  25.0248908  61.0181045  64.2949135  24.3761557
  59.5187778  64.3053859  24.5854141  74.5947253  71.2435823  24.5424242
  74.7883143  72.1481634  24.7883517  74.4947871  70.7843242  25.3762827
  66.2483564  61.1293714  27.0414569  65.6011479  61.8283663  26.9479046
  67.0184579  61.5629858  27.4090817  69.6562362  71.3942566  30.1165122
  69.5047868  71.1653118  29.1995206  69.6467041  72.3513167  30.1296467
  66.4247698  68.9674479  25.1011389  67.3539758  69.1185638  24.9280356
  66.0038728  69.0558499  24.2460035  65.2236030  72.9925143  22.8709927
  65.0847116  72.6243927  23.7435865  64.4350626  73.5072782  22.6993884
  65.8184182  78.0934239  14.2135463  65.9935938  77.6222283  15.0281086
  65.1316970  78.7200006  14.4416724  66.7741245  72.3706746  20.2598764
  66.4391078  72.3307516  21.1556414  66.2745191  71.7051462  19.7869175
  60.7485489  67.7774376  25.7851345  60.6105287  67.0454615  26.3862885
  61.6590413  67.6883276  25.5035533  69.7100437  69.7162780  10.5335824
  69.0929607  68.9909608  10.4368877  69.2416925  70.4772140  10.1902898
  63.3767790  67.4894335  25.2735025  64.0867408  66.8487527  25.2321644
  63.3337098  67.7407230  26.1961206  71.3654568  74.4261688  28.1941604
  71.3067115  73.7420909  27.5272187  71.7674087  75.1680678  27.7422230
  62.0896724  64.4759553  27.0930665  61.5534081  64.0250291  27.7452261
  61.5013432  64.6105462  26.3501129  60.3845267  81.2423602  20.9875323
  60.6241865  81.8742126  21.6654342  59.5414464  80.8911642  21.2740682
  61.4998983  63.9348204   9.6557128  60.6228449  63.8137005   9.2919375
  61.9756736  63.1434283   9.4036017  71.3671976  72.3901272  26.4255584
  70.4798754  72.0527194  26.5481983  71.9370527  71.6584304  26.6624349
  53.0201123  68.7225364  19.7498635  53.7072163  68.4087094  19.1619651
  52.8649251  69.6266729  19.4765887  57.8235845  63.6115561  24.1783659
  57.7394034  63.0041230  23.4434069  57.0018551  64.1024579  24.1793155
  64.8973129  77.0502725  23.3916827  64.8243301  77.8557696  23.9036132
  64.4550522  77.2494691  22.5664849  64.6862909  76.2874495  16.9019649
  63.9030431  76.8296175  16.9957873  65.3855654  76.8048474  17.3013890
  67.9959559  62.0969124  19.5453854  68.4928258  61.3439087  19.2254924
  67.2246540  62.1333441  18.9797063  75.8489316  67.8009490  21.1872146
  75.8379192  68.6834205  20.8166079  74.9806696  67.4481041  20.9926683
  67.3571813  76.9489559  25.5474986  68.0699785  77.5837024  25.4750887
  66.8661841  77.0453425  24.7314988  69.0789339  70.8540811  17.1192278
  68.1445618  70.9742274  16.9496982  69.2566008  69.9513278  16.8552287
  64.5794528  64.2386507  19.2725539  64.2092315  63.6857548  19.9606444
  65.0753620  63.6344641  18.7200539  72.4661891  66.6958131  17.6542312
  72.9322343  67.5286122  17.5802614  72.9169391  66.2303112  18.3587570
  62.4083726  74.6984002  26.3680557  63.1093186  75.3320485  26.5209951
  61.9378841  75.0398734  25.6076196  70.5338122  73.0401952  14.6528464
  70.8097966  72.9258547  15.5622338  69.6642621  72.6419437  14.6140637
  70.4378554  59.0638718  21.6933213  69.5241633  59.2942945  21.8615420
  70.8671655  59.1477162  22.5447245  70.2085012  67.2528610  24.1933107
  69.5556462  67.5004517  23.5385560  70.5865392  66.4392748  23.8595584
  67.1692186  77.2888303  18.2961277  67.3514581  76.4709959  18.7589030
  67.9925172  77.5055995  17.8586167  67.5034351  76.2156488  15.5576326
  68.0322118  75.7048943  14.9446488  67.7662571  75.8999018  16.4221859
  66.2572585  67.9948421  30.6799144  65.5813222  67.8942550  31.3501519
  67.0800219  67.8387634  31.1435141  58.0051444  74.2320357  23.3011659
  58.5904881  73.4864045  23.4339564  57.8076283  74.5424314  24.1848323
  60.8590099  77.2671605  18.3174102  60.1900475  77.7517732  17.8338142
  60.7202969  77.5140825  19.2317480  52.5969099  66.8025957  22.0216103
  52.6353198  66.2689548  22.8153221  52.0909392  66.2761163  21.4027080
  64.9995368  79.3015348  24.9156760  65.5513676  79.4646970  25.6805845
  65.3401561  79.8919786  24.2436785  59.9759861  61.6490498  25.5178645
  60.0401188  62.5105329  25.1056043  59.9126981  61.0364500  24.7851003
  59.4512134  63.7213630  29.1651679  60.0784173  63.3390708  29.7789203
  58.5940053  63.5027832  29.5307372  69.8506242  74.1276606  30.7705415
  70.3946146  74.7406564  30.2760369  69.2693087  74.6856184  31.2872428
  56.2277677  65.5290060  15.0970034  56.5231118  64.6200738  15.0437088
  55.3265712  65.5077799  14.7751036  68.1363755  77.2497324  21.9020442
  68.0114895  76.4487064  21.3931388  68.7942846  77.7443517  21.4134412
  59.7571924  63.6046056  21.0797583  59.0358509  64.2182024  20.9405056
  60.5465179  64.1403821  21.0014228  70.1998664  75.0506344  23.5299992
  69.2528999  74.9311695  23.4578319  70.5481437  74.1628842  23.6126254
  62.5598237  60.9400483  27.3538234  63.0832639  61.1862779  28.1164544
  62.3410570  61.7720517  26.9341372  57.9565518  63.2104157  15.2209359
  57.6278224  62.3301536  15.0384465  58.3104889  63.1551826  16.1085748
  67.2045097  74.8459060  19.7304345  67.0570059  73.9175767  19.9111915
  68.0298590  74.8679151  19.2461420  61.0707341  63.4977127  15.5884837
  61.4103414  64.0263048  14.8663445  61.5179462  63.8357533  16.3643403
  70.8079219  75.6687619  20.8169217  71.7325766  75.4630480  20.6793668
  70.6394522  75.4204020  21.7258559  63.7650782  61.8814178  25.0387905
  63.4247602  61.0821991  25.4408585  63.0589788  62.1815889  24.4664738
  64.4167254  58.9663490  23.4915228  65.2393323  58.4923968  23.3694118
  64.6605317  59.7453974  23.9913914  63.0575488  61.9951749  13.7878130
  63.7783851  62.3733001  13.2841846  62.4340793  62.7140625  13.8913107
  67.2006611  62.6996898  14.7236462  67.4170226  63.5821535  14.4225290
  66.7200678  62.3083111  13.9942104  61.9405833  65.6582611  21.3007206
  61.7950413  65.9722914  22.1931488  61.4631036  66.2767511  20.7478105
  63.8002216  62.6485159  21.3488096  63.7863784  61.7526252  21.0120394
  64.5174644  62.6555823  21.9826382  65.6528346  63.0822499  23.3941223
  65.3946124  64.0039570  23.3925554  65.1213387  62.6852934  24.0841688
  70.5974535  76.1873286  16.1731309  70.7711413  75.6219709  15.4205161
  71.0903426  76.9874181  15.9910799  56.4151495  68.1987955  24.2394868
  55.8704963  68.9747763  24.3715142  57.2930845  68.5458760  24.0813989
  63.2039111  61.5299539  16.6175666  63.3255023  60.6016185  16.8166554
  62.9141154  61.5438225  15.7053982  66.0730302  59.2154450  19.7542386
  66.0951999  59.2793783  18.7994366  66.4898361  58.3758958  19.9482892
  76.4513926  68.9509709  17.7921609  76.8945072  68.2017034  17.3940732
  75.5740436  68.9419845  17.4095341  71.5849707  75.5040051  13.2728207
  72.2800612  76.1246743  13.4915522  71.9272858  74.6535402  13.5480585
  57.2017517  67.3257852  27.1325024  56.4599253  67.4740487  27.7189655
  56.8810261  67.5866117  26.2691774  73.4841131  72.9539756  14.8015538
  74.0092455  73.2927029  14.0764858  73.3963483  72.0186771  14.6178672
  65.1461179  76.8673830  26.9305414  65.4548306  76.6222976  27.8028114
  65.9436661  77.0720468  26.4424285  65.1681791  79.0211739  19.1610791
  64.7286782  78.5288118  19.8543648  65.9189908  78.4784707  18.9202866
  57.6474130  75.2123280  19.1635419  58.4732150  74.9127052  18.7834063
  57.2968182  74.4430903  19.6125208  62.6155664  74.5649748  21.2333093
  61.9935673  73.9020453  20.9335321  63.2860530  74.5910880  20.5506740
  55.8482735  73.1309607  20.1224353  55.0114644  72.7031781  19.9408354
  55.8206381  73.3242050  21.0595144  62.6880191  63.0431536  30.8265599
  62.7368346  63.9193659  30.4443368  63.2302705  62.5008930  30.2537242
  73.1735037  73.5872660  30.1066736  72.3830580  73.5696799  29.5671235
  72.9368391  74.1260953  30.8615772  73.2932912  70.4365126  27.4199464
  73.3430917  70.2715134  28.3614987  73.1846835  69.5692385  27.0297345
  62.1769170  73.1153672  14.7091553  62.3257291  73.7989136  14.0558226
  62.9835614  73.0958762  15.2241009  70.5836674  66.4196054  28.7358771
  71.4846537  66.2802519  28.4442769  70.6584649  66.5850509  29.6756948
  64.9179479  63.7962909  27.5811957  64.0482789  64.0896475  27.3094546
  65.1538960  64.3803354  28.3019221  74.7951109  72.8562068  27.6641486
  74.5035917  73.2192048  28.5004947  74.1823240  72.1429076  27.4854818
  75.9946791  70.4214947  20.1844056  76.8293682  70.8604751  20.3481616
  76.1305920  69.9453601  19.3652302  73.0438297  67.9794682  26.1321544
  73.5192418  68.1722329  25.3240395  72.1203862  68.0353868  25.8864928
  59.9321803  69.1418849  15.7152622  59.6867845  68.2381179  15.9132832
  60.1017718  69.1436000  14.7732100  67.6218513  60.0142526  25.0977378
  68.1400457  60.7503553  24.7723866  67.2673646  60.3206519  25.9324137
  59.2017451  64.8747207  13.2138784  58.5086696  64.9491562  12.5578820
  58.9569203  64.1107551  13.7360301  67.8731107  56.4342808  20.6178274
  68.1532861  55.7665997  21.2438701  68.6581714  56.6271904  20.1052938
  65.6764576  75.6101802  12.1803301  65.1038543  76.2291989  11.7273773
  66.2497370  76.1601164  12.7143223  71.7439966  64.8560442  24.3649849
  72.6957389  64.9558540  24.3862074  71.5743416  64.0638711  24.8747934
  69.7654345  61.9416026  24.5509250  69.1704277  62.2221038  23.8555739
  69.4804042  62.4309926  25.3225992  68.8961836  75.8938952  13.3111883
  69.8292509  75.8284514  13.5144758  68.8085049  76.7295219  12.8526416
  71.5249852  75.2104823  10.2715831  71.4463484  74.8764686  11.1651588
  72.3459519  75.7026591  10.2707303  74.2228044  68.0766562  23.4792149
  74.1904364  67.1382563  23.6651833  74.8328667  68.1550599  22.7457974
  66.0611374  66.9462615   9.5219353  67.0070479  66.8168823   9.5907771
  65.6825619  66.2077277   9.9988781  74.3722532  64.8677605  23.5250432
  73.8561581  64.0836062  23.3380361  75.2562481  64.5396322  23.6896952
  72.0333259  58.6118621  19.4846245  71.8358080  58.3033709  20.3689577
  72.6432965  59.3380260  19.6144175  80.0404593  69.1382569  22.6198186
  80.7707982  68.8767857  23.1805889  79.4311539  68.4011291  22.6600254
  78.1219891  67.2790431  23.2172637  77.3953054  67.1446396  22.6089129
  77.7067177  67.5867260  24.0229355  65.9450067  70.9980361  30.9820010
  66.8653076  71.1758960  31.1760057  65.9099650  70.0536406  30.8299709
  64.2454292  64.8712591   9.4574238  63.3385747  64.5745704   9.5336952
  64.5230273  64.5742409   8.5908525  55.1632232  66.1918955  19.9073285
  54.8435016  65.3384263  19.6147659  54.6165660  66.4067533  20.6631252
  58.9412140  68.9081396  23.6242791  59.1598149  69.8398504  23.6430825
  59.3537913  68.5489370  24.4097595  65.8616357  59.4149481  15.6118480
  65.0517086  59.0696566  15.9873726  66.5500774  59.1057025  16.2006091
  67.7906906  58.4927528  17.2342776  68.3437944  58.9122981  17.8932799
  68.0276992  57.5663276  17.2765732  63.8140005  64.4814602  33.0145540
  63.7136732  65.4308959  32.9457631  63.5961547  64.1532840  32.1421610
  63.0153076  61.7299527   9.5986218  63.8772240  62.0554425   9.8582035
  63.2003420  60.9431023   9.0859283  55.0320492  69.8121866  21.8766406
  54.3383963  69.3975819  21.3636361  55.7793483  69.8542403  21.2799825
  71.1685713  60.6028053  16.7421441  70.5884382  61.2612857  16.3599493
  70.9021645  59.7805398  16.3308858  69.6189279  60.0033111  18.9442761
  70.1189057  60.1149645  18.1357080  70.2624887  59.6994164  19.5843569
  63.6771275  67.9111740  31.8310602  63.1938357  68.7112100  32.0374491
  63.7632214  67.9219685  30.8778046  56.9457235  69.7440120  19.7532421
  56.9227923  69.8427807  18.8014304  57.2557871  70.5905271  20.0749587
  59.6044612  71.8016275  23.8679036  60.5587866  71.7700217  23.8008967
  59.4057136  71.3406899  24.6829262  60.1943995  70.3717391  26.4349833
  61.0136884  70.8661470  26.4584671  60.4680802  69.4549359  26.4067401
  69.9510591  62.7628143  15.7977789  69.0636446  63.0477794  15.5797984
  70.3664580  62.6021907  14.9505066  73.3025127  62.7874664  19.5132128
  74.0785517  63.2771117  19.7856745  72.5773261  63.2132719  19.9703998
  75.7397685  63.5002284  20.5706069  76.3342176  63.2598020  19.8599377
  75.8124269  62.7809414  21.1979605  57.9594841  77.3435895  20.8849234
  57.8249309  76.5836295  20.3187232  57.5426903  78.0676794  20.4178022
  69.0953804  72.5272818   9.8925809  69.7989654  72.7322821  10.5083464
  68.3716453  73.0949580  10.1574892  69.9251614  68.2782679  16.0128079
  69.8686816  68.7351231  15.1735711  70.4779957  67.5173364  15.8350922
  73.7356420  64.0672411  16.8378199  73.4793355  63.6669047  17.6686406
  73.1109288  64.7816205  16.7128338  78.0468758  66.8068484  19.3449490
  77.4868316  66.8761674  20.1181052  77.4412262  66.6309469  18.6248986
  61.1163967  78.2405212  21.0967676  60.9996351  79.1850644  20.9946366
  60.2956413  77.9378773  21.4853475  71.0040502  72.9655347  11.9424269
  71.8386106  72.5336546  11.7601744  70.8424845  72.7937361  12.8701163
  70.6586394  69.4687461  13.3080608  70.6035198  69.3031732  12.3669052
  70.0332449  70.1763494  13.4642798  55.4478909  64.7055525  27.1342030
  56.0937772  64.1954479  27.6229256  55.2396060  65.4424207  27.7085456
  67.9732301  71.7736372  32.6334171  68.8423461  71.9477025  32.2720806
  67.4939052  72.5930789  32.5109900  63.9682519  58.9695570  12.8865927
  63.9561189  59.9137410  13.0434197  64.8605941  58.7865715  12.5925388
  62.1418481  78.8933473  24.3123605  63.0445728  78.9257084  24.6290100
  61.9155851  77.9633924  24.3269940  63.8972083  77.6464460  20.9733683
  62.9467714  77.6466322  20.8598056  64.2004569  76.8997195  20.4569718
  67.7834639  55.5638346  17.1411863  67.0167035  55.0096833  17.2868546
  68.1945344  55.6360215  18.0026015  59.7876400  61.8523142  31.2317045
  60.6507861  61.4959947  31.4420369  59.2141810  61.5137037  31.9192449
  79.6324777  83.4824998  22.0379446  80.2703187  83.3631746  21.3342786
  79.5145620  84.4305842  22.0967398  76.4414483  83.4352427  21.9740970
  76.1032994  83.3193491  21.0861505  77.3104251  83.0343592  21.9541976
  72.3001299  85.2887903  17.9637861  71.7366164  85.1977840  17.1954149
  72.1853694  84.4687807  18.4440354  76.9234266  84.5887278  27.9327176
  76.9122907  84.1940077  27.0607680  77.0854905  83.8553351  28.5260947
  69.8465731  86.7839095  20.8022082  70.6387023  86.4429919  20.3868381
  70.0862381  86.8934070  21.7224235  77.8800857  88.9558871  13.2752326
  77.2288837  89.5412951  12.8886340  78.6745220  89.4865066  13.3347364
  71.8056485  86.0448008  13.6739461  72.5787361  85.4976995  13.5352336
  72.1581883  86.9092257  13.8853922  73.6441527  87.3724390  26.8806360
  73.3531393  88.2770021  26.7653026  74.2798511  87.4140918  27.5950429
  74.5697734  84.7501239  23.4707719  75.1661306  84.5257261  22.7564682
  74.6272705  84.0085984  24.0733167  74.1422762  82.2040674  11.3057910
  74.3948283  81.6822195  10.5441373  73.2047321  82.0406819  11.4084594
  79.1866045  81.2076452  19.1132654  79.9729134  80.7895875  18.7623071
  79.4504749  82.1122544  19.2814302  79.3576123  86.6449303  13.8121310
  78.7221956  86.7183929  14.5242215  79.0273529  87.2342901  13.1340390
  84.5874472  81.1451685  20.0165632  85.3199644  80.5750902  20.2503462
  83.8313828  80.7573286  20.4572138  73.8619051  84.1068780  13.5082285
  73.7455309  83.4313683  14.1763370  73.9721311  83.6201154  12.6914438
  76.2050592  83.5678927  17.2128975  75.8408799  83.0409548  17.9241896
  77.0617708  83.1777396  17.0395460  82.1099893  74.8573260  24.4760241
  81.7783217  75.7268671  24.2521456  81.5145506  74.5409544  25.1554271
  75.8456079  78.5968827  12.2090323  76.0130481  79.4649063  12.5760794
  75.6553248  78.7596108  11.2851612  78.6031412  87.0585806  23.8756154
  78.3032135  87.9610844  23.7671961  78.2582472  86.7917989  24.7277306
  72.0543894  83.5099602  19.9092858  71.1294390  83.3775817  20.1170550
  72.3028307  84.2893822  20.4062800  82.0028556  79.5768346  21.5553591
  81.0945433  79.5083754  21.2612352  81.9516152  80.0540291  22.3835416
  75.8245300  81.0526484  13.1936990  75.7044925  81.4983535  14.0322470
  75.1297888  81.4011802  12.6350528  69.4152705  83.1532876  20.7436647
  69.5445086  83.4067355  21.6576059  68.7350156  83.7460584  20.4241302
  73.5852192  93.8230126  16.8427121  73.5076222  94.7737951  16.9215602
  72.9813836  93.4775998  17.5002048  76.0769422  80.9957991  29.4988488
  75.3002756  81.5551911  29.4891353  76.7159985  81.4814774  30.0203358
  83.8690202  77.7784784  23.3331465  83.2264583  78.0717317  22.6871259
  83.3645131  77.6637704  24.1384661  81.5230366  81.5247957  14.0217324
  82.4348222  81.7575344  13.8465022  81.0140013  82.1085002  13.4592403
  74.3315794  83.8043445  29.0606455  75.0730478  84.3428489  28.7841279
  73.6252780  84.4309733  29.2178007  79.8071134  85.9472585  27.6578617
  80.2154490  85.5054996  26.9133249  79.0848395  85.3725213  27.9112810
  76.1602204  80.8845192  25.0312174  77.0063399  81.3084606  25.1746823
  76.1000841  80.2278816  25.7250737  80.1299948  86.5073776  21.4130905
  79.5008811  86.6719490  20.7106973  79.7425610  86.9215385  22.1841870
  84.0089180  87.4428214  18.7675269  83.3240218  87.8227115  18.2172303
  84.0933030  88.0523540  19.5007217  79.3101649  78.5449560  26.6893347
  79.0662581  79.2991621  26.1527623  79.5861580  78.9234908  27.5240594
  81.2640112  85.0888173  25.3670613  81.4757007  85.7319933  24.6904994
  81.2169860  84.2550489  24.8992543  78.8666341  77.7005993  22.2707185
  78.0050820  77.9987247  22.5623922  78.8928775  77.9176392  21.3388218
  75.6827910  86.2448184  18.6780991  76.1466256  86.5235887  17.8885613
  75.4184708  85.3431628  18.4954081  72.5751991  85.7919665  21.6160754
  73.1453348  86.2206934  20.9778238  73.1660103  85.5102250  22.3144940
  74.6196796  82.3671336  15.4870556  75.3220840  82.8192380  15.9544482
  74.2877425  81.7255155  16.1150449  73.0677158  80.9583093  29.8621765
  72.4375818  81.6399374  30.0957162  72.9613246  80.8466174  28.9174903
  68.3622130  80.6254889  20.7887689  67.5721184  80.8812417  20.3127800
  68.8533378  81.4403227  20.8939730  82.3785940  87.9660128  23.5392970
  83.2003384  87.5640315  23.2575652  82.3748343  87.8628362  24.4909086
  70.3136876  80.9899468  17.7471166  69.5168039  81.1018162  18.2654662
  70.0862468  81.3286120  16.8812057  76.1442543  87.5144171  25.6953681
  76.2086976  87.9764579  26.5311852  75.4353467  86.8841536  25.8235990
  66.6459833  80.8785379  23.2202680  66.8967872  81.7632389  23.4860256
  67.1819382  80.6989981  22.4477772  90.4691933  84.3098877  19.8877942
  89.7155641  83.7406275  19.7321946  90.6039474  84.2761541  20.8348576
  75.8590561  89.1812279  15.5632661  75.7236236  90.0263815  15.9917509
  76.4000373  89.3831557  14.7998595  72.3457901  75.2603859  32.2247016
  71.9524846  74.7070057  32.8994660  73.1624041  75.5714437  32.6153534
  69.3119958  86.6987717  16.1360586  69.8244479  87.4930967  16.2866151
  69.9642671  86.0014007  16.0694188  71.1214843  89.8153473  18.2183339
  71.2981471  90.7371438  18.0304323  71.9171677  89.5011892  18.6477719
  75.2625862  76.6761738  29.8167273  76.0035575  77.2768891  29.7371735
  75.4943784  75.9339376  29.2585315  70.4067200  81.8618105  28.0945502
  70.2920715  80.9603362  28.3952601  69.5511717  82.1081802  27.7430319
  77.4859037  89.8035845  29.6933003  77.0422891  89.0172224  29.3753908
  78.1476251  89.9914996  29.0276894  72.2446158  91.3331647  24.2193682
  72.7953584  91.2048710  23.4470675  71.4057634  91.6326536  23.8688574
  79.5840275  90.0838645  27.7214404  79.5658751  90.9047526  27.2294673
  80.5060195  89.9592721  27.9464545  76.0413330  87.5982775  28.5637913
  76.5741666  86.8371063  28.3337221  75.5127411  87.3056427  29.3062067
  79.2083024  72.7042841  24.0931554  78.8647294  73.5944482  24.0170665
  79.5761987  72.5144498  23.2301139  67.2768875  85.0276371  16.9120157
  68.1144097  85.4373380  16.6953864  67.4547143  84.0875813  16.8820350
  79.1733307  82.6951452  12.6003990  78.6579931  83.4656057  12.8392377
  78.9010616  82.0216588  13.2237051  76.7580418  77.5401153  17.6589228
  75.9022015  77.1508003  17.4794867  77.1707370  77.6193113  16.7989013
  78.2879565  75.0747496  22.0580788  77.7844360  75.0377631  21.2448593
  78.5810172  75.9840239  22.1177444  74.5322451  75.1586226  21.0646969
  75.3975448  74.9629034  20.7052859  74.5999960  74.9296577  21.9916326
  84.1467581  85.4483807  14.5357163  83.3697024  85.1094966  14.0912325
  84.8259062  85.4536430  13.8612128  78.9619610  80.5678544  14.4263771
  78.6569746  80.8824693  15.2773914  79.9150052  80.6459964  14.4691104
  77.4066042  86.7268767  16.0756725  76.8787404  85.9921527  15.7629962
  76.9053545  87.5043444  15.8296693  82.3858888  84.9217788  21.1923771
  81.7282563  85.6117049  21.2803900  83.1899287  85.3114220  21.5357757
  72.1384770  77.3888434  18.4363336  72.7128522  77.1663615  17.7036529
  72.7255752  77.4577128  19.1891938  81.1964347  83.2762160  19.2427713
  81.7096229  83.9092152  19.7449422  81.8465571  82.6763356  18.8771073
  72.4654357  79.4192895  12.4559221  71.6291669  79.7567581  12.7768496
  72.3259127  79.2841874  11.5186358  74.4407438  74.2629682  17.1638406
  73.7871850  73.9478700  16.5395020  74.3987912  73.6405423  17.8898229
  75.5518642  84.5448978   9.0791698  74.6445704  84.3138231   9.2782847
  76.0489674  83.7486597   9.2665679  77.6745178  80.7511616  21.4886053
  76.7567739  80.9726563  21.3307741  78.0905322  80.8257926  20.6297761
  78.4580226  82.1503032  16.6188734  79.2052045  82.6624429  16.3095856
  78.7271815  81.8287084  17.4793127  76.7306876  84.6461572  13.6015688
  75.8218095  84.3620605  13.6988158  76.7601960  85.0660651  12.7418995
  81.9626143  88.2568162  17.3706855  81.5088470  87.4159072  17.4272046
  81.3320110  88.8929560  17.7081636  80.9059063  79.1860148  18.6007523
  80.1681820  78.6737534  18.9317765  81.1585836  78.7460530  17.7890800
  80.4059082  90.0944659  18.3056674  80.6982057  90.6549716  17.5869039
  80.9157703  90.3873220  19.0609833  81.0070690  71.9636400  19.1949292
  81.3129567  71.1033763  18.9075207  81.7323295  72.5554020  18.9948286
  67.2995046  82.3667087  17.5830890  67.1019446  81.7736447  16.8581957
  66.7441710  82.0619297  18.3006829  75.2791770  82.2590193  19.7025483
  75.3340380  81.3064029  19.6267960  74.4682972  82.4149632  20.1866782
  76.4282964  86.1870316  10.9403766  75.9902394  85.4706175  10.4809404
  77.1693404  86.4146431  10.3788858  73.2184130  80.8767253  17.4615862
  72.4051995  81.1761423  17.8681054  73.7143124  80.4822942  18.1790344
  75.3692708  90.8725010  19.3950127  75.3268886  91.0985856  18.4658659
  76.2855407  90.6388384  19.5435928  78.8158341  81.3409077  26.2930756
  79.1707729  81.5680550  27.1525222  79.4630473  81.6727454  25.6708011
  84.5456078  84.4627513  16.9980085  84.4073977  84.6529109  16.0701274
  84.1892297  85.2246896  17.4548136  72.7098205  78.4485608  23.0777097
  73.3497584  78.3074367  22.3800060  71.8775735  78.1620122  22.7015699
  84.5725458  86.5304040  22.0091356  85.0061965  86.4379329  22.8574410
  85.2857039  86.5061541  21.3711372  73.4858508  87.7488039  19.1912089
  74.2799107  87.2538359  18.9894664  72.7750201  87.2205902  18.8279795
  78.3053353  90.1306134  23.5424457  78.3590375  90.6997071  24.3102173
  77.4368134  90.3008019  23.1778494  69.7941272  81.8931120  15.2671842
  68.8638860  81.8315576  15.4841804  69.8898744  81.3707073  14.4708483
  69.7126821  78.4185933  17.8550084  69.9733638  79.3331267  17.7459244
  70.5343993  77.9510376  18.0046697  71.1851746  79.8323690  25.0248908
  71.8574800  79.6241053  24.3761557  70.3581533  79.6345776  24.5854141
  85.4341008  86.5727741  24.5424242  85.6276898  87.4773551  24.7883517
  85.3341626  86.1135160  25.3762827  77.0877318  76.4585631  27.0414569
  76.4405233  77.1575581  26.9479046  77.8578334  76.8921775  27.4090817
  80.4956116  86.7234484  30.1165122  80.3441623  86.4945035  29.1995206
  80.4860796  87.6805085  30.1296467  77.2641453  84.2966396  25.1011389
  78.1933513  84.4477556  24.9280356  76.8432483  84.3850417  24.2460035
  76.0629784  88.3217061  22.8709927  75.9240870  87.9535845  23.7435865
  75.2744381  88.8364700  22.6993884  76.6577936  93.4226157  14.2135463
  76.8329692  92.9514200  15.0281086  75.9710724  94.0491923  14.4416724
  77.6135000  87.6998663  20.2598764  77.2784832  87.6599433  21.1556414
  77.1138945  87.0343379  19.7869175  71.5879244  83.1066293  25.7851345
  71.4499041  82.3746532  26.3862885  72.4984167  83.0175194  25.5035533
  80.5494191  85.0454698  10.5335824  79.9323362  84.3201526  10.4368877
  80.0810680  85.8064058  10.1902898  74.2161544  82.8186253  25.2735025
  74.9261163  82.1779445  25.2321644  74.1730852  83.0699148  26.1961206
  82.2048323  89.7553606  28.1941604  82.1460869  89.0712826  27.5272187
  82.6067841  90.4972596  27.7422230  72.9290478  79.8051471  27.0930665
  72.3927835  79.3542209  27.7452261  72.3407187  79.9397379  26.3501129
  71.2239022  96.5715520  20.9875323  71.4635620  97.2034044  21.6654342
  70.3808218  96.2203560  21.2740682  72.3392737  79.2640122   9.6557128
  71.4622203  79.1428923   9.2919375  72.8150490  78.4726200   9.4036017
  82.2065730  87.7193190  26.4255584  81.3192509  87.3819112  26.5481983
  82.7764281  86.9876221  26.6624349  63.8594877  84.0517282  19.7498635
  64.5465917  83.7379012  19.1619651  63.7043006  84.9558646  19.4765887
  68.6629599  78.9407478  24.1783659  68.5787788  78.3333148  23.4434069
  67.8412306  79.4316497  24.1793155  75.7366884  92.3794642  23.3916827
  75.6637055  93.1849614  23.9036132  75.2944277  92.5786608  22.5664849
  75.5256663  91.6166412  16.9019649  74.7424185  92.1588093  16.9957873
  76.2249408  92.1340392  17.3013890  78.8353313  77.4261042  19.5453854
  79.3322013  76.6731004  19.2254924  78.0640295  77.4625359  18.9797063
  86.6883071  83.1301407  21.1872146  86.6772947  84.0126123  20.8166079
  85.8200450  82.7772958  20.9926683  78.1965567  92.2781476  25.5474986
  78.9093539  92.9128941  25.4750887  77.7055596  92.3745342  24.7314988
  79.9183094  86.1832729  17.1192278  78.9839373  86.3034192  16.9496982
  80.0959762  85.2805196  16.8552287  75.4188282  79.5678425  19.2725539
  75.0486070  79.0149465  19.9606444  75.9147375  78.9636558  18.7200539
  83.3055645  82.0250048  17.6542312  83.7716098  82.8578040  17.5802614
  83.7563146  81.5595030  18.3587570  73.2477481  90.0275920  26.3680557
  73.9486940  90.6612403  26.5209951  72.7772596  90.3690651  25.6076196
  81.3731876  88.3693870  14.6528464  81.6491720  88.2550464  15.5622338
  80.5036375  87.9711354  14.6140637  81.2772308  74.3930635  21.6933213
  80.3635388  74.6234862  21.8615420  81.7065410  74.4769079  22.5447245
  81.0478767  82.5820527  24.1933107  80.3950217  82.8296435  23.5385560
  81.4259146  81.7684666  23.8595584  78.0085940  92.6180220  18.2961277
  78.1908335  91.8001876  18.7589030  78.8318926  92.8347913  17.8586167
  78.3428106  91.5448406  15.5576326  78.8715872  91.0340860  14.9446488
  78.6056326  91.2290936  16.4221859  77.0966340  83.3240338  30.6799144
  76.4206977  83.2234468  31.3501519  77.9193973  83.1679552  31.1435141
  68.8445199  89.5612275  23.3011659  69.4298635  88.8155963  23.4339564
  68.6470037  89.8716232  24.1848323  71.6983854  92.5963522  18.3174102
  71.0294229  93.0809650  17.8338142  71.5596724  92.8432743  19.2317480
  63.4362853  82.1317875  22.0216103  63.4746953  81.5981466  22.8153221
  62.9303146  81.6053081  21.4027080  75.8389122  94.6307266  24.9156760
  76.3907431  94.7938887  25.6805845  76.1795316  95.2211704  24.2436785
  70.8153616  76.9782416  25.5178645  70.8794942  77.8397247  25.1056043
  70.7520736  76.3656417  24.7851003  70.2905888  79.0505548  29.1651679
  70.9177927  78.6682625  29.7789203  69.4333807  78.8319750  29.5307372
  80.6899997  89.4568523  30.7705415  81.2339901  90.0698482  30.2760369
  80.1086842  90.0148102  31.2872428  67.0671431  80.8581977  15.0970034
  67.3624872  79.9492656  15.0437088  66.1659467  80.8369717  14.7751036
  78.9757510  92.5789241  21.9020442  78.8508649  91.7778981  21.3931388
  79.6336601  93.0735435  21.4134412  70.5965678  78.9337974  21.0797583
  69.8752264  79.5473942  20.9405056  71.3858934  79.4695739  21.0014228
  81.0392418  90.3798261  23.5299992  80.0922754  90.2603613  23.4578319
  81.3875191  89.4920759  23.6126254  73.3991992  76.2692400  27.3538234
  73.9226393  76.5154697  28.1164544  73.1804325  77.1012435  26.9341372
  68.7959273  78.5396075  15.2209359  68.4671979  77.6593454  15.0384465
  69.1498643  78.4843744  16.1085748  78.0438851  90.1750978  19.7304345
  77.8963814  89.2467685  19.9111915  78.8692345  90.1971068  19.2461420
  71.9101096  78.8269045  15.5884837  72.2497168  79.3554966  14.8663445
  72.3573216  79.1649451  16.3643403  81.6472973  90.9979536  20.8169217
  82.5719521  90.7922398  20.6793668  81.4788277  90.7495938  21.7258559
  74.6044537  77.2106095  25.0387905  74.2641357  76.4113909  25.4408585
  73.8983543  77.5107806  24.4664738  75.2561008  74.2955408  23.4915228
  76.0787078  73.8215886  23.3694118  75.4999072  75.0745892  23.9913914
  73.8969243  77.3243666  13.7878130  74.6177605  77.7024919  13.2841846
  73.2734547  78.0432543  13.8913107  78.0400366  78.0288815  14.7236462
  78.2563980  78.9113453  14.4225290  77.5594433  77.6375029  13.9942104
  72.7799587  80.9874529  21.3007206  72.6344168  81.3014832  22.1931488
  72.3024791  81.6059429  20.7478105  74.6395970  77.9777077  21.3488096
  74.6257539  77.0818170  21.0120394  75.3568398  77.9847740  21.9826382
  76.4922101  78.4114417  23.3941223  76.2339879  79.3331487  23.3925554
  75.9607141  78.0144851  24.0841688  81.4368290  91.5165204  16.1731309
  81.6105167  90.9511626  15.4205161  81.9297181  92.3166099  15.9910799
  67.2545249  83.5279873  24.2394868  66.7098717  84.3039681  24.3715142
  68.1324599  83.8750677  24.0813989  74.0432866  76.8591457  16.6175666
  74.1648777  75.9308103  16.8166554  73.7534908  76.8730143  15.7053982
  76.9124056  74.5446367  19.7542386  76.9345753  74.6085700  18.7994366
  77.3292115  73.7050876  19.9482892  87.2907681  84.2801627  17.7921609
  87.7338827  83.5308952  17.3940732  86.4134191  84.2711763  17.4095341
  68.0411271  82.6549769  27.1325024  67.2993007  82.8032405  27.7189655
  67.7204015  82.9158035  26.2691774  84.3234885  88.2831674  14.8015538
  84.8486209  88.6218947  14.0764858  84.2357238  87.3478689  14.6178672
  75.9854934  92.1965747  26.9305414  76.2942060  91.9514894  27.8028114
  76.7830416  92.4012386  26.4424285  76.0075546  94.3503657  19.1610791
  75.5680536  93.8580036  19.8543648  76.7583663  93.8076625  18.9202866
  68.4867885  90.5415198  19.1635419  69.3125905  90.2418970  18.7834063
  68.1361937  89.7722820  19.6125208  73.4549418  89.8941666  21.2333093
  72.8329427  89.2312371  20.9335321  74.1254285  89.9202798  20.5506740
  66.6876490  88.4601524  20.1224353  65.8508398  88.0323699  19.9408354
  66.6600135  88.6533968  21.0595144  73.5273946  78.3723454  30.8265599
  73.5762101  79.2485577  30.4443368  74.0696460  77.8300847  30.2537242
  84.0128791  88.9164577  30.1066736  83.2224335  88.8988716  29.5671235
  83.7762146  89.4552871  30.8615772  84.1326666  85.7657044  27.4199464
  84.1824671  85.6007051  28.3614987  84.0240590  84.8984303  27.0297345
  73.0162925  88.4445589  14.7091553  73.1651045  89.1281054  14.0558226
  73.8229368  88.4250680  15.2241009  81.4230429  81.7487972  28.7358771
  82.3240291  81.6094437  28.4442769  81.4978403  81.9142427  29.6756948
  75.7573234  79.1254827  27.5811957  74.8876543  79.4188393  27.3094546
  75.9932714  79.7095272  28.3019221  85.6344863  88.1853985  27.6641486
  85.3429671  88.5483966  28.5004947  85.0216994  87.4720994  27.4854818
  86.8340545  85.7506865  20.1844056  87.6687437  86.1896669  20.3481616
  86.9699674  85.2745518  19.3652302  83.8832051  83.3086600  26.1321544
  84.3586173  83.5014246  25.3240395  82.9597617  83.3645786  25.8864928
  70.7715558  84.4710767  15.7152622  70.5261600  83.5673097  15.9132832
  70.9411472  84.4727918  14.7732100  78.4612268  75.3434443  25.0977378
  78.9794212  76.0795470  24.7723866  78.1067401  75.6498437  25.9324137
  70.0411205  80.2039125  13.2138784  69.3480450  80.2783480  12.5578820
  69.7962957  79.4399468  13.7360301  78.7124862  71.7634726  20.6178274
  78.9926616  71.0957915  21.2438701  79.4975469  71.9563822  20.1052938
  76.5158330  90.9393720  12.1803301  75.9432298  91.5583907  11.7273773
  77.0891124  91.4893082  12.7143223  82.5833720  80.1852360  24.3649849
  83.5351143  80.2850458  24.3862074  82.4137171  79.3930629  24.8747934
  80.6048100  77.2707943  24.5509250  80.0098032  77.5512956  23.8555739
  80.3197796  77.7601844  25.3225992  85.0621798  83.4058480  23.4792149
  85.0298118  82.4674480  23.6651833  85.6722422  83.4842516  22.7457974
  76.9005129  82.2754533   9.5219353  77.8464234  82.1460741   9.5907771
  76.5219374  81.5369195   9.9988781  85.2116287  80.1969523  23.5250432
  84.6955335  79.4127980  23.3380361  86.0956235  79.8688240  23.6896952
  82.8727013  73.9410539  19.4846245  82.6751835  73.6325627  20.3689577
  83.4826719  74.6672178  19.6144175  90.8798348  84.4674487  22.6198186
  91.6101736  84.2059775  23.1805889  90.2705293  83.7303208  22.6600254
  88.9613645  82.6082349  23.2172637  88.2346809  82.4738314  22.6089129
  88.5460932  82.9159178  24.0229355  76.7843821  86.3272279  30.9820010
  77.7046831  86.5050878  31.1760057  76.7493405  85.3828324  30.8299709
  75.0848046  80.2004509   9.4574238  74.1779501  79.9037622   9.5336952
  75.3624027  79.9034327   8.5908525  66.0025986  81.5210872  19.9073285
  65.6828771  80.6676181  19.6147659  65.4559415  81.7359451  20.6631252
  69.7805894  84.2373313  23.6242791  69.9991904  85.1690421  23.6430825
  70.1931668  83.8781288  24.4097595  76.7010112  74.7441399  15.6118480
  75.8910840  74.3988484  15.9873726  77.3894529  74.4348943  16.2006091
  78.6300660  73.8219446  17.2342776  79.1831699  74.2414899  17.8932799
  78.8670746  72.8955194  17.2765732  74.6533759  79.8106519  33.0145540
  74.5530486  80.7600876  32.9457631  74.4355301  79.4824758  32.1421610
  73.8546831  77.0591444   9.5986218  74.7165995  77.3846343   9.8582035
  74.0397175  76.2722940   9.0859283  65.8714246  85.1413784  21.8766406
  65.1777718  84.7267737  21.3636361  66.6187237  85.1834320  21.2799825
  82.0079467  75.9319971  16.7421441  81.4278136  76.5904775  16.3599493
  81.7415400  75.1097315  16.3308858  80.4583034  75.3325028  18.9442761
  80.9582812  75.4441563  18.1357080  81.1018641  75.0286081  19.5843569
  74.5165029  83.2403658  31.8310602  74.0332111  84.0404018  32.0374491
  74.6025968  83.2511603  30.8778046  67.7850989  85.0732038  19.7532421
  67.7621677  85.1719725  18.8014304  68.0951625  85.9197189  20.0749587
  70.4438367  87.1308193  23.8679036  71.3981620  87.0992135  23.8008967
  70.2450890  86.6698817  24.6829262  71.0337749  85.7009309  26.4349833
  71.8530638  86.1953387  26.4584671  71.3074557  84.7841277  26.4067401
  80.7904345  78.0920061  15.7977789  79.9030200  78.3769712  15.5797984
  81.2058334  77.9313824  14.9505066  84.1418881  78.1166582  19.5132128
  84.9179271  78.6063035  19.7856745  83.4167016  78.5424636  19.9703998
  86.5791440  78.8294201  20.5706069  87.1735931  78.5889937  19.8599377
  86.6518024  78.1101332  21.1979605  68.7988596  92.6727812  20.8849234
  68.6643064  91.9128213  20.3187232  68.3820658  93.3968712  20.4178022
  80.7645369  83.6074597  16.0128079  80.7080570  84.0643148  15.1735711
  81.3173711  82.8465282  15.8350922  84.5750175  79.3964329  16.8378199
  84.3187109  78.9960965  17.6686406  83.9503043  80.1108123  16.7128338
  88.8862513  82.1360402  19.3449490  88.3262071  82.2053591  20.1181052
  88.2806016  81.9601387  18.6248986  71.9557722  93.5697129  21.0967676
  71.8390106  94.5142562  20.9946366  71.1350168  93.2670691  21.4853475
  81.8434256  88.2947265  11.9424269  82.6779860  87.8628463  11.7601744
  81.6818599  88.1229279  12.8701163  81.4980148  84.7979378  13.3080608
  81.4428952  84.6323650  12.3669052  80.8726204  85.5055411  13.4642798
  66.2872663  80.0347443  27.1342030  66.9331527  79.5246397  27.6229256
  66.0789814  80.7716124  27.7085456  78.8126055  87.1028290  32.6334171
  79.6817215  87.2768942  32.2720806  78.3332807  87.9222707  32.5109900
  74.8076274  74.2987487  12.8865927  74.7954944  75.2429327  13.0434197
  75.6999696  74.1157633  12.5925388  72.9812236  94.2225391  24.3123605
  73.8839482  94.2549001  24.6290100  72.7549606  93.2925842  24.3269940
  74.7365838  92.9756378  20.9733683  73.7861469  92.9758239  20.8598056
  75.0398324  92.2289112  20.4569718  78.6228393  70.8930264  17.1411863
  77.8560789  70.3388751  17.2868546  79.0339098  70.9652133  18.0026015
  70.6270154  77.1815060  31.2317045  71.4901616  76.8251865  31.4420369
  70.0535565  76.8428955  31.9192449  87.2808237  98.7644344  21.9740970
  86.9426749  98.6485409  21.0861505  88.1498006  98.3635509  21.9541976
  87.7628020  99.9179196  27.9327176  87.7516661  99.5231994  27.0607680
  87.9248660  99.1845269  28.5260947  80.6859485 102.1131012  20.8022082
  81.4780777 101.7721837  20.3868381  80.9256135 102.2225987  21.7224235
  84.4835282 102.7016308  26.8806360  84.1925148 103.6061939  26.7653026
  85.1192266 102.7432835  27.5950429  85.4091488 100.0793156  23.4707719
  86.0055061  99.8549179  22.7564682  85.4666460  99.3377902  24.0733167
  92.9493647  90.1865177  24.4760241  92.6176972  91.0560588  24.2521456
  92.3539261  89.8701461  25.1554271  89.4425167 102.3877723  23.8756154
  89.1425890 103.2902762  23.7671961  89.0976226 102.1209906  24.7277306
  82.8937648  98.8391520  19.9092858  81.9688145  98.7067734  20.1170550
  83.1422061  99.6185739  20.4062800  92.8422310  94.9060263  21.5553591
  91.9339188  94.8375672  21.2612352  92.7909906  95.3832208  22.3835416
  80.2546459  98.4824794  20.7436647  80.3838840  98.7359273  21.6576059
  79.5743910  99.0752502  20.4241302  86.9163176  96.3249909  29.4988488
  86.1396510  96.8843829  29.4891353  87.5553739  96.8106692  30.0203358
  94.7083957  93.1076702  23.3331465  94.0658337  93.4009235  22.6871259
  94.2038885  92.9929622  24.1384661  85.1709549  99.1335362  29.0606455
  85.9124233  99.6720406  28.7841279  84.4646534  99.7601651  29.2178007
  90.6464888 101.2764503  27.6578617  91.0548244 100.8346913  26.9133249
  89.9242150 100.7017130  27.9112810  86.9995958  96.2137110  25.0312174
  87.8457153  96.6376523  25.1746823  86.9394596  95.5570734  25.7250737
  90.1495404  93.8741478  26.6893347  89.9056335  94.6283539  26.1527623
  90.4255334  94.2526826  27.5240594  92.1033866 100.4180090  25.3670613
  92.3150762 101.0611850  24.6904994  92.0563615  99.5842407  24.8992543
  89.7060095  93.0297911  22.2707185  88.8444574  93.3279165  22.5623922
  89.7322530  93.2468310  21.3388218  83.4145746 101.1211583  21.6160754
  83.9847103 101.5498851  20.9778238  84.0053858 100.8394168  22.3144940
  83.9070912  96.2875011  29.8621765  83.2769573  96.9691291  30.0957162
  83.8007000  96.1758092  28.9174903  79.2015885  95.9546807  20.7887689
  78.4114939  96.2104335  20.3127800  79.6927132  96.7695144  20.8939730
  81.1530630  96.3191386  17.7471166  80.3561793  96.4310080  18.2654662
  80.9256222  96.6578038  16.8812057  86.9836298 102.8436089  25.6953681
  87.0480730 103.3056496  26.5311852  86.2747222 102.2133454  25.8235990
  77.4853588  96.2077297  23.2202680  77.7361626  97.0924307  23.4860256
  78.0213136  96.0281899  22.4477772  83.1851655  90.5895776  32.2247016
  82.7918601  90.0361975  32.8994660  84.0017795  90.9006355  32.6153534
  86.1019616  92.0053655  29.8167273  86.8429329  92.6060809  29.7371735
  86.3337539  91.2631293  29.2585315  81.2460954  97.1910023  28.0945502
  81.1314469  96.2895280  28.3952601  80.3905472  97.4373720  27.7430319
  88.3252792 105.1327763  29.6933003  87.8816646 104.3464142  29.3753908
  88.9870005 105.3206914  29.0276894  83.0839913 106.6623565  24.2193682
  83.6347338 106.5340628  23.4470675  82.2451389 106.9618454  23.8688574
  90.4234030 105.4130563  27.7214404  90.4052505 106.2339444  27.2294673
  91.3453950 105.2884638  27.9464545  86.8807084 102.9274692  28.5637913
  87.4135421 102.1662981  28.3337221  86.3521165 102.6348344  29.3062067
  90.0476779  88.0334758  24.0931554  89.7041048  88.9236400  24.0170665
  90.4155742  87.8436416  23.2301139  89.1273319  90.4039414  22.0580788
  88.6238115  90.3669549  21.2448593  89.4203926  91.3132156  22.1177444
  85.3716205  90.4878143  21.0646969  86.2369202  90.2920952  20.7052859
  85.4393714  90.2588495  21.9916326  82.9778524  92.7180351  18.4363336
  83.5522276  92.4955533  17.7036529  83.5649507  92.7869046  19.1891938
  85.2801192  89.5921600  17.1638406  84.6265604  89.2770617  16.5395020
  85.2381666  88.9697341  17.8898229  88.5138932  96.0803534  21.4886053
  87.5961494  96.3018481  21.3307741  88.9299076  96.1549844  20.6297761
  91.8464445  87.2928318  19.1949292  92.1523321  86.4325681  18.9075207
  92.5717049  87.8845938  18.9948286  78.1388801  97.6959004  17.5830890
  77.9413201  97.1028365  16.8581957  77.5835465  97.3911214  18.3006829
  86.1185524  97.5882111  19.7025483  86.1734134  96.6355947  19.6267960
  85.3076726  97.7441550  20.1866782  84.0577884  96.2059170  17.4615862
  83.2445750  96.5053341  17.8681054  84.5536878  95.8114859  18.1790344
  89.6552096  96.6700995  26.2930756  90.0101484  96.8972468  27.1525222
  90.3024227  97.0019372  25.6708011  83.5491959  93.7777526  23.0777097
  84.1891338  93.6366285  22.3800060  82.7169490  93.4912039  22.7015699
  80.5520575  93.7477851  17.8550084  80.8127393  94.6623184  17.7459244
  81.3737748  93.2802294  18.0046697  82.0245501  95.1615608  25.0248908
  82.6968554  94.9532970  24.3761557  81.1975287  94.9637694  24.5854141
  87.9271073  91.7877549  27.0414569  87.2798988  92.4867499  26.9479046
  88.6972088  92.2213693  27.4090817  91.3349871 102.0526401  30.1165122
  91.1835377 101.8236953  29.1995206  91.3254550 103.0097003  30.1296467
  88.1035207  99.6258314  25.1011389  89.0327267  99.7769474  24.9280356
  87.6826237  99.7142335  24.2460035  86.9023539 103.6508978  22.8709927
  86.7634625 103.2827763  23.7435865  86.1138135 104.1656618  22.6993884
  82.4272998  98.4358211  25.7851345  82.2892796  97.7038450  26.3862885
  83.3377922  98.3467111  25.5035533  85.0555299  98.1478170  25.2735025
  85.7654917  97.5071363  25.2321644  85.0124607  98.3991065  26.1961206
  93.0442077 105.0845524  28.1941604  92.9854624 104.4004744  27.5272187
  93.4461596 105.8264514  27.7422230  83.7684233  95.1343388  27.0930665
  83.2321590  94.6834127  27.7452261  83.1800941  95.2689297  26.3501129
  93.0459485 103.0485108  26.4255584  92.1586263 102.7111029  26.5481983
  93.6158036 102.3168139  26.6624349  74.6988632  99.3809199  19.7498635
  75.3859672  99.0670929  19.1619651  74.5436760 100.2850564  19.4765887
  79.5023354  94.2699396  24.1783659  79.4181543  93.6625066  23.4434069
  78.6806060  94.7608414  24.1793155  89.6747068  92.7552960  19.5453854
  90.1715767  92.0022922  19.2254924  88.9034049  92.7917276  18.9797063
  86.2582037  94.8970343  19.2725539  85.8879824  94.3441383  19.9606444
  86.7541129  94.2928476  18.7200539  84.0871235 105.3567838  26.3680557
  84.7880695 105.9904321  26.5209951  83.6166350 105.6982569  25.6076196
  92.1166063  89.7222553  21.6933213  91.2029142  89.9526780  21.8615420
  92.5459164  89.8060997  22.5447245  91.8872521  97.9112445  24.1933107
  91.2343971  98.1588352  23.5385560  92.2652901  97.0976583  23.8595584
  87.9360094  98.6532256  30.6799144  87.2600731  98.5526385  31.3501519
  88.7587728  98.4971470  31.1435141  79.6838953 104.8904193  23.3011659
  80.2692390 104.1447880  23.4339564  79.4863792 105.2008149  24.1848323
  74.2756608  97.4609793  22.0216103  74.3140707  96.9273383  22.8153221
  73.7696901  96.9344998  21.4027080  81.6547370  92.3074333  25.5178645
  81.7188697  93.1689164  25.1056043  81.5914490  91.6948335  24.7851003
  81.1299643  94.3797466  29.1651679  81.7571682  93.9974543  29.7789203
  80.2727562  94.1611668  29.5307372  91.5293751 104.7860441  30.7705415
  92.0733655 105.3990399  30.2760369  90.9480596 105.3440019  31.2872428
  77.9065185  96.1873895  15.0970034  78.2018627  95.2784573  15.0437088
  77.0053221  96.1661634  14.7751036  81.4359432  94.2629892  21.0797583
  80.7146018  94.8765859  20.9405056  82.2252688  94.7987656  21.0014228
  84.2385746  91.5984318  27.3538234  84.7620148  91.8446615  28.1164544
  84.0198079  92.4304353  26.9341372  79.6353027  93.8687993  15.2209359
  79.3065733  92.9885372  15.0384465  79.9892398  93.8135661  16.1085748
  85.4438291  92.5398013  25.0387905  85.1035111  91.7405826  25.4408585
  84.7377297  92.8399724  24.4664738  86.0954763  89.6247326  23.4915228
  86.9180832  89.1507804  23.3694118  86.3392826  90.4037809  23.9913914
  83.6193342  96.3166446  21.3007206  83.4737922  96.6306749  22.1931488
  83.1418545  96.9351347  20.7478105  85.4789725  93.3068994  21.3488096
  85.4651293  92.4110087  21.0120394  86.1962153  93.3139658  21.9826382
  87.3315855  93.7406334  23.3941223  87.0733633  94.6623405  23.3925554
  86.8000896  93.3436769  24.0841688  78.0939004  98.8571791  24.2394868
  77.5492472  99.6331599  24.3715142  78.9718354  99.2042595  24.0813989
  84.8826620  92.1883374  16.6175666  85.0042532  91.2600021  16.8166554
  84.5928663  92.2022060  15.7053982  87.7517811  89.8738285  19.7542386
  87.7739508  89.9377618  18.7994366  88.1685870  89.0342794  19.9482892
  78.8805026  97.9841687  27.1325024  78.1386762  98.1324322  27.7189655
  78.5597770  98.2449952  26.2691774  86.8248688 107.5257665  26.9305414
  87.1335815 107.2806812  27.8028114  87.6224170 107.7304304  26.4424285
  77.5270244 103.7893442  20.1224353  76.6902153 103.3615616  19.9408354
  77.4993890 103.9825885  21.0595144  84.3667700  93.7015372  30.8265599
  84.4155855  94.5777495  30.4443368  84.9090214  93.1592765  30.2537242
  94.8522546 104.2456495  30.1066736  94.0618089 104.2280634  29.5671235
  94.6155900 104.7844789  30.8615772  94.9720421 101.0948961  27.4199464
  95.0218426 100.9298969  28.3614987  94.8634344 100.2276220  27.0297345
  92.2624183  97.0779889  28.7358771  93.1634046  96.9386354  28.4442769
  92.3372158  97.2434344  29.6756948  86.5966988  94.4546744  27.5811957
  85.7270298  94.7480310  27.3094546  86.8326469  95.0387189  28.3019221
  96.4738618 103.5145903  27.6641486  96.1823426 103.8775884  28.5004947
  95.8610749 102.8012911  27.4854818  94.7225806  98.6378518  26.1321544
  95.1979927  98.8306164  25.3240395  93.7991371  98.6937703  25.8864928
  89.3006022  90.6726361  25.0977378  89.8187966  91.4087388  24.7723866
  88.9461155  90.9790354  25.9324137  89.5518616  87.0926644  20.6178274
  89.8320370  86.4249833  21.2438701  90.3369223  87.2855739  20.1052938
  93.4227475  95.5144278  24.3649849  94.3744898  95.6142375  24.3862074
  93.2530925  94.7222546  24.8747934  91.4441854  92.5999861  24.5509250
  90.8491786  92.8804874  23.8555739  91.1591551  93.0893762  25.3225992
  96.0510041  95.5261441  23.5250432  95.5349090  94.7419897  23.3380361
  96.9349990  95.1980157  23.6896952  93.7120768  89.2702456  19.4846245
  93.5145589  88.9617545  20.3689577  94.3220474  89.9964095  19.6144175
  87.6237576 101.6564196  30.9820010  88.5440585 101.8342795  31.1760057
  87.5887159 100.7120242  30.8299709  76.8419741  96.8502790  19.9073285
  76.5222525  95.9968098  19.6147659  76.2953169  97.0651368  20.6631252
  80.6199649  99.5665231  23.6242791  80.8385658 100.4982339  23.6430825
  81.0325422  99.2073206  24.4097595  87.5403866  90.0733316  15.6118480
  86.7304595  89.7280401  15.9873726  88.2288283  89.7640860  16.2006091
  89.4694415  89.1511363  17.2342776  90.0225453  89.5706817  17.8932799
  89.7064501  88.2247111  17.2765732  85.4927514  95.1398437  33.0145540
  85.3924241  96.0892794  32.9457631  85.2749056  94.8116676  32.1421610
  76.7108001 100.4705702  21.8766406  76.0171472 100.0559654  21.3636361
  77.4580992 100.5126238  21.2799825  91.2976788  90.6616946  18.9442761
  91.7976566  90.7733481  18.1357080  91.9412396  90.3577999  19.5843569
  85.3558784  98.5695576  31.8310602  84.8725866  99.3695936  32.0374491
  85.4419723  98.5803521  30.8778046  78.6244743 100.4023955  19.7532421
  78.6015432 100.5011643  18.8014304  78.9345380 101.2489106  20.0749587
  81.2832121 102.4600110  23.8679036  82.2375375 102.4284053  23.8008967
  81.0844645 101.9990734  24.6829262  81.8731503 101.0301226  26.4349833
  82.6924392 101.5245305  26.4584671  82.1468311 100.1133195  26.4067401
  77.1266418  95.3639360  27.1342030  77.7725281  94.8538314  27.6229256
  76.9183569  96.1008042  27.7085456  89.6519810 102.4320208  32.6334171
  90.5210970 102.6060860  32.2720806  89.1726561 103.2514625  32.5109900
  89.4622148  86.2222182  17.1411863  88.6954543  85.6680668  17.2868546
  89.8732853  86.2944050  18.0026015  81.4663909  92.5106977  31.2317045
  82.3295370  92.1543782  31.4420369  80.8929319  92.1720872  31.9192449
  94.0245410 105.9187694  32.2247016  93.6312355 105.3653893  32.8994660
  94.8411550 106.2298273  32.6153534  96.9413371 107.3345573  29.8167273
  97.6823084 107.9352726  29.7371735  97.1731293 106.5923211  29.2585315
  91.9693397 109.7089384  29.1651679  92.5965436 109.3266461  29.7789203
  91.1121316 109.4903585  29.5307372  95.2061454 109.0307290  30.8265599
  95.2549610 109.9069412  30.4443368  95.7483969 108.4884683  30.2537242
  96.3321268 110.4690355  33.0145540  96.2317995 111.4184712  32.9457631
  96.1142810 110.1408593  32.1421610  87.9660172 110.6931278  27.1342030
  88.6119036 110.1830232  27.6229256  87.7577323 111.4299960  27.7085456
  92.3057663 107.8398895  31.2317045  93.1689125 107.4835700  31.4420369
  91.7323074 107.5012790  31.9192449  48.1718735  20.4754893  17.4950721
  48.7158639  21.0884851  17.0005676  47.5905579  21.0334471  18.0117734
  51.4947529  19.9350947  16.8312042  50.7043073  19.9175086  16.2916542
  51.2580884  20.4739241  17.5861079  46.2944793  18.1214660  19.3579478
  47.1635953  18.2955312  18.9966113  45.8151545  18.9409077  19.2355207
  57.9537269  29.8303286   8.7624752  58.5915679  29.7110033   8.0588092
  57.8358112  30.7784130   8.8212704  54.7626975  29.7830714   8.6986277
  54.4245487  29.6671778   7.8106812  55.6316743  29.3821879   8.6787283
  55.2446758  30.9365566  14.6572482  55.2335399  30.5418364  13.7852986
  55.4067398  30.2031638  15.2506254  51.9654019  33.7202677  13.6051666
  51.6743885  34.6248308  13.4898333  52.6011004  33.7619205  14.3195736
  52.8910226  31.0979526  10.1953026  53.4873798  30.8735548   9.4809989
  52.9485198  30.3564271  10.7978474  62.9086965  27.4929973   6.7410939
  63.6412137  26.9229190   6.9748768  62.1526320  27.1051573   7.1817444
  60.4312385  21.2051547  11.2005547  60.0995710  22.0746958  10.9766762
  59.8357998  20.8887831  11.8799578  56.9243904  33.4064093  10.6001460
  56.6244628  34.3089132  10.4917267  56.5794964  33.1396276  11.4522613
  60.3241048  25.9246633   8.2798897  59.4157926  25.8562041   7.9857658
  60.2728644  26.4018578   9.1080723  51.9064684  40.1708413   3.5672428
  51.8288714  41.1216238   3.6460908  51.3026328  39.8254286   4.2247354
  54.3981914  27.3436279  16.2233795  53.6215248  27.9030199  16.2136659
  55.0372477  27.8293062  16.7448665  62.1902695  24.1263071  10.0576771
  61.5477075  24.4195605   9.4116566  61.6857623  24.0115992  10.8629968
  52.6528286  30.1521732  15.7851762  53.3942971  30.6906776  15.5086585
  51.9465272  30.7788021  15.9423314  58.1283626  32.2950872  14.3823923
  58.5366982  31.8533283  13.6378556  57.4060887  31.7203500  14.6358116
  54.4814696  27.2323479  11.7557480  55.3275891  27.6562893  11.8992129
  54.4213334  26.5757104  12.4496043  58.4512441  32.8552063   8.1376212
  57.8221303  33.0197777   7.4352280  58.0638103  33.2693673   8.9087176
  62.3301673  33.7906501   5.4920576  61.6452711  34.1705402   4.9417609
  62.4145522  34.4001828   6.2252524  57.6314141  24.8927848  13.4138654
  57.3875073  25.6469908  12.8772930  57.9074072  25.2713195  14.2485901
  59.5852604  31.4366460  12.0915919  59.7969499  32.0798220  11.4150300
  59.5382352  30.6028776  11.6237849  50.8964484  32.1397953   8.3406060
  51.4665841  32.5685221   7.7023545  51.4872595  31.8580537   9.0390246
  51.3889650  27.3061380  16.5867072  50.7588311  27.9877661  16.8202469
  51.2825738  27.1944462  15.6420210  60.6998432  34.3138415  10.2638277
  61.5215876  33.9118603   9.9820958  60.6960835  34.2106650  11.2154393
  54.4655036  33.8622459  12.4198987  54.5299468  34.3242866  13.2557159
  53.7565959  33.2319824  12.5481297  68.7904425  30.6577164   6.6123248
  68.0368134  30.0884562   6.4567253  68.9251966  30.6239828   7.5593883
  50.6670393  21.6082146  18.9492323  50.2737338  21.0548345  19.6239967
  51.4836533  21.9192724  19.3398840  53.5838354  23.0240025  16.5412579
  54.3248067  23.6247178  16.4617042  53.8156277  22.2817663  15.9830622
  48.7279692  28.2096392  14.8190809  48.6133207  27.3081650  15.1197908
  47.8724210  28.4560089  14.4675626  55.8071530  36.1514133  16.4178310
  55.3635384  35.3650511  16.0999214  56.4688743  36.3393283  15.7522200
  50.5658651  37.6809934  10.9438988  51.1166076  37.5526998  10.1715982
  49.7270127  37.9804823  10.5933881  57.9052768  36.4316933  14.4459711
  57.8871243  37.2525814  13.9539980  58.8272688  36.3071008  14.6709852
  54.3625822  33.9461062  15.2883219  54.8954159  33.1849350  15.0582527
  53.8339903  33.6534714  16.0307374  60.7071381  31.2696075   7.9169078
  60.0495055  31.9595336   8.0049206  61.5111780  31.6592507   8.2603064
  59.5176839  29.6240448   5.9673019  60.0308721  30.2570440   6.4694729
  60.1678063  29.0241643   5.6016379  60.2838636  34.6046449   4.0952162
  59.8300963  33.7637359   4.1517352  59.6532602  35.2407848   4.4326942
  58.7271575  36.4422946   5.0301980  59.0194549  37.0028003   4.3114346
  59.2370195  36.7351507   5.7855139  53.6905200  37.2203297   6.1195433
  53.6481379  37.4464143   5.1903965  54.6067899  36.9866672   6.2681235
  57.1370834  27.6887364  13.0176063  57.4920221  27.9158838  13.8770528
  57.7842965  28.0205741  12.3953318  62.8937950  32.8782327   8.7336663
  63.3274457  32.7857616   9.5819717  63.6069531  32.8539828   8.0956679
  56.6265845  36.4784421  10.2669764  56.6802867  37.0475358  11.0347480
  55.7580627  36.6486307   9.9023801  63.7553500  32.9206028  11.2669548
  63.9489390  33.8251839  11.5128823  63.6554118  32.4613447  12.1008134
  55.4089811  22.8063919  13.7659876  54.7617726  23.5053868  13.6724352
  56.1790826  23.2400063  14.1336124  58.8168609  33.0712771  16.8410429
  58.6654115  32.8423322  15.9240513  58.8073288  34.0283372  16.8541774
  55.5853945  30.6444684  11.8256696  56.5146005  30.7955843  11.6525663
  55.1644975  30.7328704  10.9705342  54.3842277  34.6695348   9.5955233
  54.2453362  34.3014132  10.4681171  53.5956873  35.1842987   9.4239191
  55.9347492  34.0476951   6.9844071  55.5997324  34.0077721   7.8801721
  55.4351438  33.3821667   6.5114481  49.9091736  29.4544581  12.5096652
  49.7711534  28.7224819  13.1108191  50.8196659  29.3653481  12.2280840
  52.5374036  29.1664540  11.9980332  53.2473655  28.5257732  11.9566950
  52.4943345  29.4177435  12.9206513  60.5260815  36.1031893  14.9186911
  60.4673361  35.4191113  14.2517494  60.9280334  36.8450883  14.4667537
  51.2502970  26.1529758  13.8175971  50.7140327  25.7020496  14.4697568
  50.6619679  26.2875667  13.0746436  49.5451514  42.9193807   7.7120630
  49.7848112  43.5512331   8.3899648  48.7020710  42.5681847   7.9985989
  60.5278222  34.0671477  13.1500891  59.6405001  33.7297399  13.2727290
  61.0976774  33.3354508  13.3869656  54.0579376  38.7272930  10.1162134
  53.9849547  39.5327901  10.6281438  53.6156769  38.9264895   9.2910155
  53.8469155  37.9644700   3.6264955  53.0636677  38.5066380   3.7203180
  54.5461901  38.4818679   4.0259197  65.0095563  29.4779695   7.9117452
  64.9985439  30.3604410   7.5411385  64.1412942  29.1251245   7.7171989
  56.5178059  38.6259764  12.2720293  57.2306032  39.2607228  12.1996194
  56.0268088  38.7223630  11.4560294  51.5689973  36.3754207  13.0925863
  52.2699432  37.0090690  13.2455258  51.0985088  36.7168939  12.3321503
  59.3691259  28.9298815  10.9178414  58.7162709  29.1774722  10.2630866
  59.7471639  28.1162953  10.5840891  56.3298433  38.9658508   5.0206584
  56.5120827  38.1480164   5.4834336  57.1531419  39.1826200   4.5831474
  56.6640598  37.8926693   2.2821632  57.1928365  37.3819147   1.6691795
  56.9268818  37.5769223   3.1467165  55.4178832  29.6718626  17.4044451
  54.7419469  29.5712755  18.0746826  56.2406466  29.5157839  17.8680448
  47.1657691  35.9090562  10.0256966  47.7511128  35.1634250  10.1584870
  46.9682529  36.2194519  10.9093630  50.0196346  38.9441810   5.0419408
  49.3506721  39.4287937   4.5583448  49.8809216  39.1911030   5.9562787
  54.1601615  40.9785553  11.6402067  54.7119923  41.1417175  12.4051152
  54.5007808  41.5689991  10.9682092  48.6118381  25.3983835  15.8896986
  49.2390419  25.0160913  16.5034510  47.7546299  25.1798037  16.2552678
  59.0112489  35.8046811  17.4950721  59.5552393  36.4176769  17.0005676
  58.4299334  36.3626389  18.0117734  57.2970002  38.9267529   8.6265749
  57.1721141  38.1257268   8.1176694  57.9549093  39.4213722   8.1379719
  59.3604910  36.7276549  10.2545299  58.4135246  36.6081900  10.1823626
  59.7087684  35.8399047  10.3371560  51.7204484  22.6170688  14.0783541
  52.2438886  22.8632984  14.8409850  51.5016817  23.4490722  13.6586678
  56.3651344  36.5229265   6.4549651  56.2176306  35.5945972   6.6357221
  57.1904837  36.5449356   5.9706726  59.9685466  37.3457824   7.5414524
  60.8932013  37.1400685   7.4038975  59.8000769  37.0974225   8.4503865
  54.8134593  24.7592704  10.1186530  54.5552371  25.6809775  10.1170860
  54.2819633  24.3623138  10.8086994  59.7580782  37.8643491   2.8976615
  59.9317659  37.2989914   2.1450468  60.2509673  38.6644386   2.7156105
  45.5757742  29.8758160  10.9640174  45.0311210  30.6517968  11.0960449
  46.4537091  30.2228965  10.8059296  65.6120173  30.6279914   4.5166915
  66.0551319  29.8787239   4.1186038  64.7346683  30.6190050   4.1340647
  46.3623763  29.0028056  13.8570331  45.6205499  29.1510692  14.4434962
  46.0416508  29.2636322  12.9937081  54.3067426  38.5444035  13.6550721
  54.6154553  38.2993181  14.5273421  55.1042908  38.7490673  13.1669591
  54.3288038  40.6981944   5.8856098  53.8893028  40.2058323   6.5788954
  55.0796155  40.1554912   5.6448173  51.7761910  36.2419953   7.9578399
  51.1541920  35.5790658   7.6580627  52.4466777  36.2681085   7.2752047
  51.8486438  24.7201741  17.5510905  51.8974593  25.5963864  17.1688675
  52.3908952  24.1779134  16.9782549  62.3341283  35.2642865  16.8312042
  61.5436827  35.2467003  16.2916542  62.0974638  35.8031158  17.5861079
  62.4539158  32.1135331  14.1444771  62.5037163  31.9485338  15.0860294
  62.3453082  31.2462590  13.7542652  59.7442921  28.0966259  15.4604078
  60.6452784  27.9572724  15.1688075  59.8190895  28.2620714  16.4002255
  54.0785726  25.4733114  14.3057264  53.2089036  25.7666680  14.0339853
  54.3145207  26.0573559  15.0264528  63.9557355  34.5332273  14.3886793
  63.6642164  34.8962253  15.2250253  63.3429487  33.8199281  14.2100125
  65.1553038  32.0985152   6.9089363  65.9899929  32.5374956   7.0726923
  65.2912166  31.6223806   6.0897609  62.2044544  29.6564887  12.8566851
  62.6798665  29.8492533  12.0485702  61.2810109  29.7124073  12.6110234
  56.7824760  21.6912731  11.8222684  57.3006704  22.4273758  11.4969173
  56.4279893  21.9976724  12.6569444  60.9046213  26.5330647  11.0895156
  61.8563635  26.6328745  11.1107380  60.7349663  25.7408916  11.5993240
  58.9260592  23.6186230  11.2754557  58.3310524  23.8991243  10.5801046
  58.6410289  24.1080131  12.0471298  63.3834290  29.7536767  10.2037456
  63.3510610  28.8152768  10.3897140  63.9934914  29.8320804   9.4703281
  63.5328779  26.5447810  10.2495739  63.0167827  25.7606267  10.0625668
  64.4168727  26.2166527  10.4142258  69.2010840  30.8152774   9.3443493
  69.9314229  30.5538062   9.9051196  68.5917786  30.0781496   9.3845561
  67.2826137  28.9560636   9.9417944  66.5559301  28.8216601   9.3334435
  66.8673424  29.2637465  10.7474662  55.1056314  32.6750566  17.7065317
  56.0259323  32.8529165  17.9005363  55.0705897  31.7306611  17.5545016
  48.1018386  30.5851601  10.3488098  48.3204396  31.5168709  10.3676132
  48.5144160  30.2259575  11.1342902  52.9746252  26.1584806  19.7390847
  52.8742979  27.1079163  19.6702938  52.7567794  25.8303045  18.8666917
  52.8377522  29.5881945  18.5555909  52.3544603  30.3882305  18.7619798
  52.9238461  29.5989890  17.6023353  48.7650859  33.4786480  10.5924342
  49.7194113  33.4470422  10.5254274  48.5663383  33.0177104  11.4074568
  49.3550241  32.0487596  13.1595140  50.1743130  32.5431675  13.1829977
  49.6287049  31.1319564  13.1312707  64.9003932  25.1772489   7.2951375
  65.4948423  24.9368225   6.5844684  64.9730516  24.4579619   7.9224912
  47.1201088  39.0206100   7.6094540  46.9855556  38.2606500   7.0432538
  46.7033150  39.7446999   7.1423329  67.2075005  28.4838689   6.0694797
  66.6474563  28.5531879   6.8426359  66.6018508  28.3079674   5.3494293
  50.2770214  39.9175417   7.8212983  50.1602598  40.8620849   7.7191673
  49.4562660  39.6148978   8.2098782  44.6085156  26.3825730  13.8587337
  45.2544019  25.8724684  14.3474562  44.4002307  27.1194412  14.4330762
  57.1338548  33.4506577  19.3579478  58.0029707  33.6247230  18.9966113
  56.6545299  34.2700994  19.2355207  51.3024728  40.5703678  11.0368911
  52.2051975  40.6027289  11.3535406  51.0762098  39.6404129  11.0515247
  53.0578330  39.3234665   7.6978990  52.1073961  39.3236527   7.5843362
  53.3610816  38.5767400   7.1815024  48.9482647  23.5293347  17.9562351
  49.8114108  23.1730152  18.1665676  48.3748057  23.1907242  18.6437756
  68.7931023  45.1595203   8.7624752  69.4309433  45.0401951   8.0588092
  68.6751866  46.1076047   8.8212704  65.6020730  45.1122631   8.6986277
  65.2639241  44.9963696   7.8106812  66.4710498  44.7113797   8.6787283
  61.4607545  46.9658108   4.6883168  60.8972411  46.8748045   3.9199456
  61.3459940  46.1458012   5.1685660  66.0840513  46.2657483  14.6572482
  66.0729153  45.8710281  13.7852986  66.2461152  45.5323556  15.2506254
  59.0071977  48.4609299   7.5267388  59.7993269  48.1200124   7.1113688
  59.2468628  48.5704275   8.4469542  67.0407104  50.6329076  -0.0002367
  66.3895084  51.2183156  -0.3868353  67.8351467  51.1635270   0.0592670
  60.9662731  47.7218213   0.3984767  61.7393607  47.1747200   0.2597643
  61.3188130  48.5862462   0.6099229  62.8047774  49.0494595  13.6051666
  62.5137640  49.9540226  13.4898333  63.4404758  49.0911123  14.3195736
  63.7303981  46.4271444  10.1953026  64.3267553  46.2027466   9.4809989
  63.7878952  45.6856189  10.7978474  63.3029009  43.8810879  -1.9696783
  63.5554530  43.3592400  -2.7313320  62.3653568  43.7177024  -1.8670099
  68.3472292  42.8846657   5.8377960  69.1335381  42.4666080   5.4868377
  68.6110996  43.7892749   6.0059609  68.5182369  48.3219508   0.5366617
  67.8828202  48.3954134   1.2487522  68.1879776  48.9113106  -0.1414304
  73.7480719  42.8221890   6.7410939  74.4805891  42.2521107   6.9748768
  72.9920075  42.4343491   7.1817444  63.0225298  45.7838985   0.2327592
  62.9061556  45.1083888   0.9008676  63.1327558  45.2971359  -0.5840255
  65.3656839  45.2449132   3.9374281  65.0015046  44.7179753   4.6487203
  66.2223955  44.8547601   3.7640767  71.2706139  36.5343465  11.2005547
  70.9389464  37.4038875  10.9766762  70.6751753  36.2179749  11.8799578
  65.0062326  40.2739032  -1.0664370  65.1736728  41.1419268  -0.6993899
  64.8159495  40.4366313  -1.9903081  67.7637659  48.7356010  10.6001460
  67.4638382  49.6381049  10.4917267  67.4188718  48.4688194  11.4522613
  61.2150140  45.1869807   6.6338165  60.2900637  45.0546021   6.8415856
  61.4634554  45.9664027   7.1308107  71.1634803  41.2538551   8.2798897
  70.2551680  41.1853959   7.9857658  71.1122399  41.7310496   9.1080723
  64.9851547  42.7296689  -0.0817703  64.8651172  43.1753740   0.7567777
  64.2904135  43.0782007  -0.6404165  58.5758951  44.8303081   7.4681954
  58.7051333  45.0837560   8.3821365  57.8956403  45.4230789   7.1486609
  62.7458439  55.5000331   3.5672428  62.6682468  56.4508156   3.6460908
  62.1420082  55.1546203   4.2247354  65.2375669  42.6728196  16.2233795
  64.4609003  43.2322116  16.2136659  65.8766232  43.1584979  16.7448665
  73.0296449  39.4554989  10.0576771  72.3870829  39.7487522   9.4116566
  72.5251378  39.3407909  10.8629968  70.6836613  43.2018162   0.7462631
  71.5954469  43.4345549   0.5710328  70.1746260  43.7855206   0.1837709
  63.4922041  45.4813650  15.7851762  64.2336725  46.0198694  15.5086585
  62.7859026  46.1079938  15.9423314  68.9677380  47.6242790  14.3823923
  69.3760736  47.1825201  13.6378556  68.2454642  47.0495418  14.6358116
  65.3208451  42.5615397  11.7557480  66.1669646  42.9854810  11.8992129
  65.2607088  41.9049021  12.4496043  69.2906195  48.1843981   8.1376212
  68.6615058  48.3489695   7.4352280  68.9031857  48.5985590   8.9087176
  73.1695427  49.1198419   5.4920576  72.4846465  49.4997320   4.9417609
  73.2539276  49.7293745   6.2252524  68.4707896  40.2219765  13.4138654
  68.2268828  40.9761826  12.8772930  68.7467826  40.6005113  14.2485901
  70.4246359  46.7658378  12.0915919  70.6363254  47.4090137  11.4150300
  70.3776107  45.9320694  11.6237849  68.0272588  39.3776198   8.9952492
  67.1657067  39.6757452   9.2869229  68.0535022  39.5946597   8.0633524
  64.8434157  47.9218389   5.4026297  65.3072503  48.2006092   4.6130920
  64.5790955  47.0201833   5.2199388  61.7358238  47.4689870   8.3406060
  62.3059595  47.8977139   7.7023545  62.3266350  47.1872455   9.0390246
  63.7803043  44.0441541   2.2115862  64.4827086  44.4962585   2.6789789
  63.4483672  43.4025360   2.8395755  62.2283405  42.6353298  16.5867072
  61.5982065  43.3169579  16.8202469  62.1219492  42.5236379  15.6420210
  57.5228377  42.3025094   7.5132996  56.7327431  42.5582622   7.0373107
  58.0139624  43.1173432   7.6185036  71.5392187  49.6430333  10.2638277
  72.3609630  49.2410520   9.9820958  71.5354589  49.5398567  11.2154393
  59.4743122  42.6669673   4.4716473  58.6774286  42.7788367   4.9899968
  59.2468715  43.0056325   3.6057363  65.3048790  49.1914376  12.4198987
  65.3693223  49.6534784  13.2557159  64.5959714  48.5611741  12.5481297
  55.8066080  42.5555584   9.9447987  56.0574118  43.4402594  10.2105563
  56.3425628  42.3760186   9.1723079  79.6298180  45.9869081   6.6123248
  78.8761888  45.4176480   6.4567253  79.7645721  45.9531746   7.5593883
  65.0196808  50.8582484   2.2877968  64.8842482  51.7034020   2.7162815
  65.5606620  51.0601761   1.5243901  61.5064147  36.9374064  18.9492323
  61.1131093  36.3840262  19.6239967  62.3230288  37.2484642  19.3398840
  58.4726205  48.3757922   2.8605893  58.9850726  49.1701172   3.0111457
  59.1248918  47.6784212   2.7939494  60.2821090  51.4923678   4.9428646
  60.4587718  52.4141643   4.7549630  61.0777923  51.1782097   5.3723026
  64.4232108  38.3531943  16.5412579  65.1641822  38.9539096  16.4617042
  64.6550031  37.6109581  15.9830622  59.5673446  43.5388310  14.8190809
  59.4526961  42.6373567  15.1197908  58.7117964  43.7852007  14.4675626
  66.6465284  51.4806050  16.4178310  66.2029138  50.6942429  16.0999214
  67.3082498  51.6685201  15.7522200  61.4052405  53.0101852  10.9438988
  61.9559830  52.8818915  10.1715982  60.5663881  53.3096741  10.5933881
  68.7446522  51.7608850  14.4459711  68.7264997  52.5817731  13.9539980
  69.6666442  51.6362925  14.6709852  65.2019576  49.2752980  15.2883219
  65.7347913  48.5141268  15.0582527  64.6733657  48.9826632  16.0307374
  68.3689271  34.3813046  10.8176861  68.0253541  35.2714687  10.7415972
  68.7368234  34.1914703   9.9546446  56.4375122  46.7046576   3.6365463
  57.2750344  47.1143585   3.4199171  56.6153390  45.7646018   3.6065657
  68.3339554  44.3721657  -0.6750704  67.8186177  45.1426261  -0.4362316
  68.0616862  43.6986793  -0.0517642  65.9186665  39.2171358   4.3834535
  65.0628261  38.8278208   4.2040173  66.3313617  39.2963318   3.5234320
  67.4485812  36.7517701   8.7826094  66.9450607  36.7147836   7.9693900
  67.7416418  37.6610444   8.8422751  63.6928698  36.8356431   7.7892276
  64.5581694  36.6399239   7.4298166  63.7606206  36.6066782   8.7161633
  73.3073828  47.1254011   1.2602470  72.5303271  46.7865171   0.8157632
  73.9865309  47.1306635   0.5857435  68.1225857  42.2448749   1.1509077
  67.8175993  42.5594898   2.0019221  69.0756299  42.3230169   1.1936410
  66.5672289  48.4038972   2.8002031  66.0393651  47.6691732   2.4875269
  66.0659792  49.1813649   2.5542000  71.5465135  46.5987993   7.9169078
  70.8888809  47.2887254   8.0049206  72.3505534  46.9884425   8.2603064
  61.2991017  39.0658638   5.1608643  61.8734768  38.8433820   4.4281836
  61.8861999  39.1347333   5.9137244  70.3570594  44.9532365   5.9673019
  70.8702476  45.5862357   6.4694729  71.0071818  44.3533561   5.6016379
  61.6260604  41.0963100  -0.8195472  60.7897916  41.4337786  -0.4986197
  61.4865373  40.9612079  -1.7568335  63.6013684  35.9399887   3.8883712
  62.9478097  35.6248905   3.2640327  63.5594158  35.3175628   4.6143535
  64.7124889  46.2219182  -4.1962996  63.8051951  45.9908436  -3.9971847
  65.2095921  45.4256802  -4.0089014  67.6192968  54.9316690  -1.2766309
  66.9454667  55.2348386  -0.6681352  68.0058790  55.7345770  -1.6260852
  66.8351425  42.4281821   8.2131360  65.9173986  42.6496768   8.0553048
  67.2511568  42.5028131   7.3543067  67.6186472  43.8273237   3.3434040
  68.3658291  44.3394634   3.0341162  67.8878062  43.5057289   4.2038434
  65.8913123  46.3231777   0.3260994  64.9824342  46.0390810   0.4233464
  65.9208206  46.7430856  -0.5335699  71.1232390  49.9338367   4.0952162
  70.6694717  49.0929277   4.1517352  70.4926357  50.5699765   4.4326942
  70.0665310  40.8630353   5.3252829  69.3288066  40.3507739   5.6563072
  70.3192083  40.4230734   4.5136106  69.5665329  51.7714864   5.0301980
  69.8588304  52.3319921   4.3114346  70.0763950  52.0643425   5.7855139
  70.1676937  33.6406605   5.9194599  70.4735814  32.7803968   5.6320514
  70.8929542  34.2324225   5.7193593  56.4601293  44.0437291   4.3076197
  56.2625693  43.4506652   3.5827263  55.9047957  43.7389502   5.0252135
  64.4398017  43.9360398   6.4270790  64.4946626  42.9834234   6.3513266
  63.6289219  44.0919837   6.9112088  65.5889210  47.8640521  -2.3350927
  65.1508640  47.1476380  -2.7945290  66.3299651  48.0916636  -2.8965836
  62.3790377  42.5537458   4.1861169  61.5658242  42.8531628   4.5926361
  62.8749371  42.1593146   4.9035651  64.5298954  52.5495215   6.1195433
  64.4875133  52.7756061   5.1903965  65.4461653  52.3158589   6.2681235
  67.9764588  43.0179282  13.0176063  68.3313976  43.2450755  13.8770528
  68.6236719  43.3497659  12.3953318  73.7062325  46.1397718   3.7225392
  73.5680224  46.3299314   2.7946581  73.3498544  46.9017101   4.1793443
  61.8704451  40.1255813   9.8022404  62.5103831  39.9844572   9.1045367
  61.0381982  39.8390327   9.4261006  73.7331705  48.2074245   8.7336663
  74.1668211  48.1149534   9.5819717  74.4463285  48.1831746   8.0956679
  62.6464755  49.4258244   5.9157396  63.4405354  48.9308564   5.7139971
  61.9356448  48.8976107   5.5525102  67.4659600  51.8076339  10.2669764
  67.5196622  52.3767275  11.0347480  66.5974381  51.9778224   9.9023801
  58.9547519  43.5701325   1.9917149  58.0245107  43.5085781   2.2087111
  59.0504991  43.0477278   1.1953790  58.8733068  40.0956138   4.5795390
  59.1339885  41.0101471   4.4704551  59.6950240  39.6280581   4.7292003
  60.3457993  41.5093895  11.7494215  61.0181046  41.3011257  11.1006864
  59.5187780  41.3115981  11.3099447  74.5947254  48.2497946  11.2669548
  74.7883144  49.1543756  11.5128823  74.4947873  47.7905365  12.1008134
  66.2483565  38.1355836  13.7659876  65.6011480  38.8345786  13.6724352
  67.0184580  38.5691980  14.1336124  69.6562363  48.4004688  16.8410429
  69.5047869  48.1715240  15.9240513  69.6467042  49.3575290  16.8541774
  66.4247699  45.9736601  11.8256696  67.3539759  46.1247761  11.6525663
  66.0038729  46.0620622  10.9705342  65.2236031  49.9987266   9.5955233
  65.0847117  49.6306050  10.4681171  64.4350627  50.5134905   9.4239191
  65.8184183  55.0996362   0.9380770  65.9935939  54.6284405   1.7526392
  65.1316971  55.7262128   1.1662030  66.7741246  49.3768868   6.9844071
  66.4391079  49.3369638   7.8801721  66.2745192  48.7113584   6.5114481
  60.7485490  44.7836498  12.5096652  60.6105288  44.0516737  13.1108191
  61.6590414  44.6945398  12.2280840  69.7100438  46.7224903  -2.7418869
  69.0929609  45.9971731  -2.8385817  69.2416926  47.4834263  -3.0851795
  63.3767791  44.4956458  11.9980332  64.0867410  43.8549650  11.9566950
  63.3337099  44.7469353  12.9206513  71.3654570  51.4323811  14.9186911
  71.3067116  50.7483031  14.2517494  71.7674088  52.1742801  14.4667537
  62.0896725  41.4821676  13.8175971  61.5534082  41.0312414  14.4697568
  61.5013433  41.6167584  13.0746436  60.3845268  58.2485725   7.7120630
  60.6241867  58.8804249   8.3899648  59.5414465  57.8973765   7.9985989
  71.3671977  49.3963395  13.1500891  70.4798756  49.0589317  13.2727290
  71.9370528  48.6646426  13.3869656  53.0201124  45.7287487   6.4743942
  53.7072164  45.4149217   5.8864957  52.8649253  46.6328851   6.2011193
  57.8235846  40.6177683  10.9028966  57.7394035  40.0103353  10.1679376
  57.0018553  41.1086702  10.9038462  64.8973130  54.0564847  10.1162134
  64.8243302  54.8619819  10.6281438  64.4550523  54.2556813   9.2910155
  64.6862910  53.2936617   3.6264955  63.9030432  53.8358298   3.7203180
  65.3855655  53.8110597   4.0259197  67.9959560  39.1031247   6.2699161
  68.4928260  38.3501209   5.9500231  67.2246542  39.1395563   5.7042370
  75.8489317  44.8071612   7.9117452  75.8379194  45.6896328   7.5411385
  74.9806697  44.4543163   7.7171989  67.3571814  53.9551681  12.2720293
  68.0699786  54.5899146  12.1996194  66.8661842  54.0515547  11.4560294
  69.0789341  47.8602934   3.8437584  68.1445619  47.9804396   3.6742289
  69.2566009  46.9575401   3.5797594  64.5794529  41.2448630   5.9970845
  64.2092316  40.6919670   6.6851751  65.0753621  40.6406763   5.4445845
  72.4661892  43.7020253   4.3787618  72.9322344  44.5348245   4.3047921
  72.9169393  43.2365235   5.0832877  62.4083727  51.7046125  13.0925863
  63.1093187  52.3382608  13.2455258  61.9378842  52.0460856  12.3321503
  70.5338123  50.0464075   1.3773770  70.8097967  49.9320669   2.2867644
  69.6642622  49.6481559   1.3385943  70.4378555  36.0700840   8.4178520
  69.5241635  36.3005067   8.5860727  70.8671656  36.1539284   9.2692552
  70.2085013  44.2590732  10.9178414  69.5556464  44.5066640  10.2630866
  70.5865393  43.4454870  10.5840891  67.1692187  54.2950425   5.0206584
  67.3514582  53.4772081   5.4834336  67.9925173  54.5118118   4.5831474
  67.5034353  53.2218611   2.2821632  68.0322119  52.7111065   1.6691795
  67.7662572  52.9061141   3.1467165  66.2572586  45.0010543  17.4044451
  65.5813223  44.9004673  18.0746826  67.0800220  44.8449757  17.8680448
  58.0051445  51.2382480  10.0256966  58.5904882  50.4926168  10.1584870
  57.8076284  51.5486437  10.9093630  60.8590101  54.2733727   5.0419408
  60.1900476  54.7579855   4.5583448  60.7202970  54.5202948   5.9562787
  52.5969100  43.8088080   8.7461409  52.6353200  43.2751671   9.5398527
  52.0909393  43.2823286   8.1272386  64.9995369  56.3077471  11.6402067
  65.5513677  56.4709092  12.4051152  65.3401563  56.8981909  10.9682092
  59.9759862  38.6552621  12.2423951  60.0401189  39.5167451  11.8301349
  59.9126983  38.0426622  11.5096310  59.4512135  40.7275753  15.8896986
  60.0784174  40.3452830  16.5034510  58.5940054  40.5089955  16.2552678
  69.8506244  51.1338728  17.4950721  70.3946148  51.7468687  17.0005676
  69.2693088  51.6918307  18.0117734  56.2277678  42.5352182   1.8215341
  56.5231119  41.6262861   1.7682394  55.3265714  42.5139922   1.4996343
  68.1363757  54.2559446   8.6265749  68.0114896  53.4549186   8.1176694
  68.7942848  54.7505640   8.1379719  59.7571925  40.6108179   7.8042889
  59.0358511  41.2244146   7.6650362  60.5465181  41.1465944   7.7259535
  70.1998665  52.0568466  10.2545299  69.2529000  51.9373818  10.1823626
  70.5481438  51.1690964  10.3371560  62.5598238  37.9462605  14.0783541
  63.0832640  38.1924902  14.8409850  62.3410572  38.7782640  13.6586678
  57.9565519  40.2166280   1.9454666  57.6278225  39.3363659   1.7629772
  58.3104890  40.1613949   2.8331055  67.2045098  51.8521183   6.4549651
  67.0570061  50.9237890   6.6357221  68.0298592  51.8741273   5.9706726
  61.0707343  40.5039250   2.3130143  61.4103415  41.0325171   1.5908752
  61.5179463  40.8419656   3.0888710  70.8079220  52.6749741   7.5414524
  71.7325768  52.4692603   7.4038975  70.6394523  52.4266142   8.4503865
  63.7650783  38.8876300  11.7633211  63.4247604  38.0884113  12.1653891
  63.0589790  39.1878011  11.1910045  64.4167255  35.9725613  10.2160534
  65.2393324  35.4986091  10.0939425  64.6605319  36.7516097  10.7159221
  63.0575490  39.0013871   0.5123436  63.7783852  39.3795124   0.0087153
  62.4340794  39.7202748   0.6158414  67.2006613  39.7059020   1.4481768
  67.4170227  40.5883658   1.1470597  66.7200680  39.3145234   0.7187410
  61.9405834  42.6644733   8.0252513  61.7950415  42.9785037   8.9176795
  61.4631038  43.2829634   7.4723412  63.8002217  39.6547281   8.0733403
  63.7863786  38.7588375   7.7365701  64.5174645  39.6617945   8.7071689
  65.6528348  40.0884622  10.1186530  65.3946125  41.0101692  10.1170860
  65.1213388  39.6915056  10.8086994  70.5974536  53.1935409   2.8976615
  70.7711414  52.6281831   2.1450468  71.0903427  53.9936304   2.7156105
  56.4151496  45.2050078  10.9640174  55.8704964  45.9809886  11.0960449
  57.2930846  45.5520882  10.8059296  63.2039113  38.5361662   3.3420973
  63.3255024  37.6078308   3.5411860  62.9141155  38.5500348   2.4299288
  66.0730303  36.2216572   6.4787693  66.0952000  36.2855905   5.5239672
  66.4898362  35.3821081   6.6728199  76.4513927  45.9571832   4.5166915
  76.8945073  45.2079157   4.1186038  75.5740438  45.9481968   4.1340647
  71.5849709  52.5102173  -0.0026486  72.2800613  53.1308866   0.2160828
  71.9272859  51.6597524   0.2725892  57.2017518  44.3319974  13.8570331
  56.4599254  44.4802609  14.4434962  56.8810262  44.5928240  12.9937081
  73.4841132  49.9601879   1.5260844  74.0092456  50.2989151   0.8010165
  73.3963484  49.0248894   1.3423979  65.1461181  53.8735952  13.6550721
  65.4548307  53.6285099  14.5273421  65.9436663  54.0782591  13.1669591
  65.1681793  56.0273862   5.8856098  64.7286783  55.5350241   6.5788954
  65.9189910  55.4846830   5.6448173  57.6474132  52.2185403   5.8880726
  58.4732152  51.9189175   5.5079369  57.2968184  51.4493025   6.3370514
  62.6155665  51.5711871   7.9578399  61.9935674  50.9082576   7.6580627
  63.2860532  51.5973003   7.2752047  55.8482737  50.1371729   6.8469659
  55.0114645  49.7093904   6.6653661  55.8206382  50.3304173   7.7840451
  62.6880192  40.0493659  17.5510905  62.7368348  40.9255782  17.1688675
  63.2302706  39.5071052  16.9782549  73.1735038  50.5934782  16.8312042
  72.3830582  50.5758921  16.2916542  72.9368393  51.1323076  17.5861079
  73.2932913  47.4427249  14.1444771  73.3430918  47.2777256  15.0860294
  73.1846836  46.5754508  13.7542652  62.1769172  50.1215794   1.4336860
  62.3257292  50.8051259   0.7803533  62.9835615  50.1020884   1.9486316
  70.5836675  43.4258177  15.4604078  71.4846538  43.2864642  15.1688075
  70.6584650  43.5912632  16.4002255  64.9179481  40.8025031  14.3057264
  64.0482790  41.0958598  14.0339853  65.1538961  41.3865476  15.0264528
  74.7951110  49.8624190  14.3886793  74.5035918  50.2254171  15.2250253
  74.1823241  49.1491198  14.2100125  75.9946792  47.4277070   6.9089363
  76.8293684  47.8666874   7.0726923  76.1305921  46.9515723   6.0897609
  73.0438298  44.9856805  12.8566851  73.5192420  45.1784451  12.0485702
  72.1203863  45.0415991  12.6110234  59.9321805  46.1480972   2.4397929
  59.6867847  45.2443302   2.6378139  60.1017719  46.1498122   1.4977407
  67.6218515  37.0204648  11.8222684  68.1400458  37.7565675  11.4969173
  67.2673647  37.3268642  12.6569444  59.2017452  41.8809330  -0.0615910
  58.5086697  41.9553685  -0.7175874  58.9569204  41.1169673   0.4605607
  67.8731109  33.4404931   7.3423581  68.1532862  32.7728120   7.9684008
  68.6581716  33.6334027   6.8298245  65.6764577  52.6163925  -1.0951393
  65.1038544  53.2354112  -1.5480921  66.2497371  53.1663287  -0.5611471
  71.7439967  41.8622565  11.0895156  72.6957390  41.9620663  11.1107380
  71.5743417  41.0700833  11.5993240  69.7654347  38.9478148  11.2754557
  69.1704279  39.2283161  10.5801046  69.4804043  39.4372049  12.0471298
  68.8961837  52.9001075   0.0357190  69.8292510  52.8346637   0.2390065
  68.8085050  53.7357342  -0.4228278  71.5249854  52.2166945  -3.0038863
  71.4463485  51.8826809  -2.1103105  72.3459520  52.7088713  -3.0047391
  74.2228045  45.0828685  10.2037456  74.1904365  44.1444685  10.3897140
  74.8328668  45.1612721   9.4703281  66.0611376  43.9524738  -3.7535340
  67.0070480  43.8230946  -3.6846922  65.6825621  43.2139399  -3.2765912
  74.3722533  41.8739728  10.2495739  73.8561582  41.0898185  10.0625668
  75.2562482  41.5458445  10.4142258  72.0333260  35.6180744   6.2091552
  71.8358081  35.3095832   7.0934884  72.6432966  36.3442383   6.3389481
  80.0404595  46.1444691   9.3443493  80.7707983  45.8829980   9.9051196
  79.4311540  45.4073413   9.3845561  78.1219892  44.2852554   9.9417944
  77.3953055  44.1508519   9.3334435  77.7067179  44.5929383  10.7474662
  65.9450068  48.0042484  17.7065317  66.8653078  48.1821083  17.9005363
  65.9099651  47.0598529  17.5545016  55.1632233  43.1981077   6.6318591
  54.8435018  42.3446386   6.3392965  54.6165661  43.4129656   7.3876559
  58.9412141  45.9143518  10.3488098  59.1598151  46.8460626  10.3676132
  59.3537915  45.5551493  11.1342902  65.8616359  36.4211604   2.3363786
  65.0517087  36.0758689   2.7119032  66.5500776  36.1119147   2.9251398
  67.7906907  35.4989651   3.9588083  68.3437945  35.9185104   4.6178106
  68.0276993  34.5725399   4.0011039  63.8140006  41.4876724  19.7390847
  63.7136733  42.4371081  19.6702938  63.5961548  41.1594963  18.8666917
  55.0320493  46.8183989   8.6011713  54.3383965  46.4037942   8.0881667
  55.7793484  46.8604525   8.0045132  71.1685714  37.6090176   3.4666747
  70.5884383  38.2674980   3.0844800  70.9021647  36.7867520   3.0554165
  69.6189280  37.0095233   5.6688068  70.1189059  37.1211768   4.8602386
  70.2624888  36.7056286   6.3088876  63.6771276  44.9173863  18.5555909
  63.1938358  45.7174223  18.7619798  63.7632215  44.9281808  17.6023353
  56.9457236  46.7502243   6.4777728  56.9227924  46.8489930   5.5259611
  57.2557872  47.5967393   6.7994894  59.6044614  48.8078398  10.5924342
  60.5587867  48.7762340  10.5254274  59.4057137  48.3469021  11.4074568
  60.1943996  47.3779514  13.1595140  61.0136885  47.8723592  13.1829977
  60.4680803  46.4611482  13.1312707  69.9510592  39.7690266   2.5223095
  69.0636447  40.0539917   2.3043290  70.3664581  39.6084029   1.6750372
  73.3025128  39.7936787   6.2377435  74.0785518  40.2833239   6.5102052
  72.5773262  40.2194841   6.6949304  75.7397687  40.5064406   7.2951375
  76.3342178  40.2660142   6.5844684  75.8124270  39.7871537   7.9224912
  57.9594842  54.3498017   7.6094540  57.8249310  53.5898418   7.0432538
  57.5426905  55.0738917   7.1423329  69.0953805  49.5334941  -3.3828885
  69.7989656  49.7384943  -2.7671229  68.3716454  50.1011703  -3.1179801
  69.9251616  45.2844802   2.7373386  69.8686817  45.7413353   1.8981018
  70.4779958  44.5235487   2.5596228  73.7356422  41.0734534   3.5623505
  73.4793356  40.6731170   4.3931713  73.1109290  41.7878328   3.4373644
  78.0468759  43.8130607   6.0694797  77.4868317  43.8823796   6.8426359
  77.4412263  43.6371592   5.3494293  61.1163968  55.2467334   7.8212983
  60.9996352  56.1912767   7.7191673  60.2956415  54.9440896   8.2098782
  71.0040503  49.9717470  -1.3330424  71.8386107  49.5398668  -1.5152950
  70.8424846  49.7999484  -0.4053530  70.6586395  46.4749583   0.0325915
  70.6035199  46.3093855  -0.9085641  70.0332450  47.1825616   0.1888105
  55.4478910  41.7117648  13.8587337  56.0937774  41.2016602  14.3474562
  55.2396061  42.4486329  14.4330762  67.9732302  48.7798495  19.3579478
  68.8423462  48.9539147  18.9966113  67.4939054  49.5992912  19.2355207
  62.1418482  55.8995596  11.0368911  63.0445729  55.9319206  11.3535406
  61.9155853  54.9696047  11.0515247  63.8972084  54.6526583   7.6978990
  62.9467715  54.6528444   7.5843362  64.2004571  53.9059317   7.1815024
  67.7834640  32.5700469   3.8657170  67.0167036  32.0158956   4.0113852
  68.1945345  32.6422338   4.7271322  59.7876401  38.8585265  17.9562351
  60.6507863  38.5022070  18.1665676  59.2141812  38.5199159  18.6437756
  79.6324778  60.4887121   8.7624752  80.2703188  60.3693868   8.0588092
  79.5145621  61.4367965   8.8212704  76.4414484  60.4414549   8.6986277
  76.1032996  60.3255614   7.8106812  77.3104252  60.0405714   8.6787283
  72.3001300  62.2950026   4.6883168  71.7366165  62.2039962   3.9199456
  72.1853695  61.4749930   5.1685660  76.9234267  61.5949401  14.6572482
  76.9122908  61.2002199  13.7852986  77.0854907  60.8615473  15.2506254
  69.8465732  63.7901217   7.5267388  70.6387024  63.4492042   7.1113688
  70.0862382  63.8996192   8.4469542  77.8800859  65.9620993  -0.0002367
  77.2288838  66.5475074  -0.3868353  78.6745221  66.4927188   0.0592670
  71.8056486  63.0510130   0.3984767  72.5787362  62.5039117   0.2597643
  72.1581885  63.9154380   0.6099229  73.6441528  64.3786513  13.6051666
  73.3531394  65.2832144  13.4898333  74.2798513  64.4203040  14.3195736
  74.5697735  61.7563361  10.1953026  75.1661307  61.5319384   9.4809989
  74.6272707  61.0148107  10.7978474  74.1422764  59.2102797  -1.9696783
  74.3948284  58.6884318  -2.7313320  73.2047323  59.0468942  -1.8670099
  79.1866046  58.2138575   5.8377960  79.9729136  57.7957998   5.4868377
  79.4504751  59.1184667   6.0059609  79.3576124  63.6511425   0.5366617
  78.7221957  63.7246052   1.2487522  79.0273530  64.2405024  -0.1414304
  84.5874474  58.1513808   6.7410939  85.3199645  57.5813025   6.9748768
  83.8313829  57.7635409   7.1817444  73.8619052  61.1130902   0.2327592
  73.7455310  60.4375806   0.9008676  73.9721312  60.6263276  -0.5840255
  76.2050593  60.5741050   3.9374281  75.8408801  60.0471671   4.6487203
  77.0617709  60.1839519   3.7640767  82.1099894  51.8635382  11.2005547
  81.7783219  52.7330793  10.9766762  81.5145507  51.5471666  11.8799578
  75.8456080  55.6030949  -1.0664370  76.0130483  56.4711186  -0.6993899
  75.6553249  55.7658231  -1.9903081  78.6031413  64.0647928  10.6001460
  78.3032137  64.9672967  10.4917267  78.2582473  63.7980111  11.4522613
  72.0543895  60.5161725   6.6338165  71.1294391  60.3837939   6.8415856
  72.3028308  61.2955944   7.1308107  82.0028557  56.5830468   8.2798897
  81.0945435  56.5145877   7.9857658  81.9516153  57.0602413   9.1080723
  75.8245301  58.0588607  -0.0817703  75.7044926  58.5045658   0.7567777
  75.1297890  58.4073924  -0.6404165  69.4152706  60.1594999   7.4681954
  69.5445087  60.4129477   8.3821365  68.7350157  60.7522707   7.1486609
  73.5852193  70.8292249   3.5672428  73.5076223  71.7800074   3.6460908
  72.9813837  70.4838121   4.2247354  76.0769423  58.0020114  16.2233795
  75.3002757  58.5614034  16.2136659  76.7159986  58.4876897  16.7448665
  83.8690204  54.7846907  10.0576771  83.2264584  55.0779440   9.4116566
  83.3645132  54.6699827  10.8629968  81.5230367  58.5310080   0.7462631
  82.4348223  58.7637467   0.5710328  81.0140014  59.1147124   0.1837709
  74.3315795  60.8105567  15.7851762  75.0730480  61.3490611  15.5086585
  73.6252781  61.4371856  15.9423314  79.8071135  62.9534708  14.3823923
  80.2154491  62.5117118  13.6378556  79.0848396  62.3787335  14.6358116
  76.1602205  57.8907315  11.7557480  77.0063400  58.3146728  11.8992129
  76.1000843  57.2340939  12.4496043  80.1299950  63.5135898   8.1376212
  79.5008812  63.6781613   7.4352280  79.7425612  63.9277508   8.9087176
  84.0089182  64.4490336   5.4920576  83.3240220  64.8289238   4.9417609
  84.0933031  65.0585663   6.2252524  79.3101650  55.5511683  13.4138654
  79.0662582  56.3053743  12.8772930  79.5861581  55.9297031  14.2485901
  81.2640113  62.0950295  12.0915919  81.4757008  62.7382055  11.4150300
  81.2169861  61.2612612  11.6237849  78.8666342  54.7068116   8.9952492
  78.0050821  55.0049369   9.2869229  78.8928777  54.9238515   8.0633524
  75.6827911  63.2510306   5.4026297  76.1466257  63.5298009   4.6130920
  75.4184710  62.3493751   5.2199388  72.5751993  62.7981788   8.3406060
  73.1453350  63.2269056   7.7023545  73.1660104  62.5164373   9.0390246
  74.6196798  59.3733459   2.2115862  75.3220841  59.8254503   2.6789789
  74.2877426  58.7317278   2.8395755  73.0677159  57.9645215  16.5867072
  72.4375820  58.6461496  16.8202469  72.9613247  57.8528297  15.6420210
  68.3622131  57.6317012   7.5132996  67.5721185  57.8874540   7.0373107
  68.8533379  58.4465349   7.6185036  82.3785941  64.9722251  10.2638277
  83.2003385  64.5702438   9.9820958  82.3748344  64.8690485  11.2154393
  70.3136877  57.9961591   4.4716473  69.5168040  58.1080285   4.9899968
  70.0862469  58.3348243   3.6057363  76.1442544  64.5206294  12.4198987
  76.2086977  64.9826701  13.2557159  75.4353468  63.8903659  12.5481297
  66.6459834  57.8847502   9.9447987  66.8967873  58.7694512  10.2105563
  67.1819383  57.7052103   9.1723079  90.4691934  61.3160999   6.6123248
  89.7155642  60.7468397   6.4567253  90.6039475  61.2823664   7.5593883
  75.8590562  66.1874401   2.2877968  75.7236237  67.0325937   2.7162815
  76.4000375  66.3893679   1.5243901  72.3457902  52.2665981  18.9492323
  71.9524847  51.7132180  19.6239967  73.1624042  52.5776560  19.3398840
  69.3119960  63.7049840   2.8605893  69.8244480  64.4993090   3.0111457
  69.9642672  63.0076130   2.7939494  71.1214844  66.8215596   4.9428646
  71.2981473  67.7433560   4.7549630  71.9171678  66.5074015   5.3723026
  75.2625863  53.6823860  16.5412579  76.0035576  54.2831014  16.4617042
  75.4943786  52.9401498  15.9830622  70.4067201  58.8680228  14.8190809
  70.2920716  57.9665485  15.1197908  69.5511719  59.1143924  14.4675626
  77.4859039  66.8097968  16.4178310  77.0422893  66.0234347  16.0999214
  78.1476252  66.9977118  15.7522200  72.2446160  68.3393770  10.9438988
  72.7953585  68.2110833  10.1715982  71.4057636  68.6388659  10.5933881
  79.5840277  67.0900768  14.4459711  79.5658752  67.9109649  13.9539980
  80.5060197  66.9654843  14.6709852  76.0413331  64.6044897  15.2883219
  76.5741668  63.8433186  15.0582527  75.5127412  64.3118549  16.0307374
  79.2083026  49.7104963  10.8176861  78.8647295  50.6006605  10.7415972
  79.5761988  49.5206621   9.9546446  67.2768876  62.0338494   3.6365463
  68.1144098  62.4435502   3.4199171  67.4547144  61.0937936   3.6065657
  79.1733308  59.7013574  -0.6750704  78.6579932  60.4718179  -0.4362316
  78.9010617  59.0278711  -0.0517642  76.7580419  54.5463275   4.3834535
  75.9022016  54.1570126   4.2040173  77.1707371  54.6255236   3.5234320
  78.2879566  52.0809619   8.7826094  77.7844362  52.0439754   7.9693900
  78.5810173  52.9902361   8.8422751  74.5322452  52.1648348   7.7892276
  75.3975449  51.9691157   7.4298166  74.5999961  51.9358700   8.7161633
  84.1467583  62.4545929   1.2602470  83.3697025  62.1157089   0.8157632
  84.8259064  62.4598552   0.5857435  78.9619612  57.5740667   1.1509077
  78.6569747  57.8886816   2.0019221  79.9150054  57.6522086   1.1936410
  77.4066043  63.7330890   2.8002031  76.8787405  62.9983649   2.4875269
  76.9053546  64.5105566   2.5542000  82.3858889  61.9279910   7.9169078
  81.7282564  62.6179172   8.0049206  83.1899289  62.3176342   8.2603064
  72.1384771  54.3950556   5.1608643  72.7128523  54.1725738   4.4281836
  72.7255754  54.4639251   5.9137244  81.1964348  60.2824283   5.9673019
  81.7096230  60.9154275   6.4694729  81.8465572  59.6825479   5.6016379
  72.4654358  56.4255017  -0.8195472  71.6291670  56.7629704  -0.4986197
  72.3259128  56.2903997  -1.7568335  74.4407439  51.2691805   3.8883712
  73.7871851  50.9540822   3.2640327  74.3987913  50.6467546   4.6143535
  75.5518644  61.5511100  -4.1962996  74.6445705  61.3200354  -3.9971847
  76.0489676  60.7548719  -4.0089014  77.6745179  57.7573739   8.2131360
  76.7567741  57.9788686   8.0553048  78.0905323  57.8320049   7.3543067
  78.4580227  59.1565154   3.3434040  79.2052046  59.6686552   3.0341162
  78.7271816  58.8349207   4.2038434  76.7306877  61.6523695   0.3260994
  75.8218096  61.3682728   0.4233464  76.7601961  62.0722774  -0.5335699
  81.9626144  65.2630285   4.0952162  81.5088472  64.4221194   4.1517352
  81.3320111  65.8991683   4.4326942  80.9059064  56.1922271   5.3252829
  80.1681821  55.6799657   5.6563072  81.1585838  55.7522652   4.5136106
  80.4059084  67.1006781   5.0301980  80.6982058  67.6611838   4.3114346
  80.9157704  67.3935342   5.7855139  81.0070691  48.9698523   5.9194599
  81.3129568  48.1095886   5.6320514  81.7323296  49.5616143   5.7193593
  67.2995047  59.3729209   4.3076197  67.1019447  58.7798570   3.5827263
  66.7441711  59.0681419   5.0252135  75.2791771  59.2652316   6.4270790
  75.3340381  58.3126152   6.3513266  74.4682973  59.4211755   6.9112088
  76.4282965  63.1932439  -2.3350927  75.9902395  62.4768298  -2.7945290
  77.1693406  63.4208554  -2.8965836  73.2184131  57.8829375   4.1861169
  72.4051997  58.1823546   4.5926361  73.7143125  57.4885064   4.9035651
  75.3692709  67.8787132   6.1195433  75.3268888  68.1047979   5.1903965
  76.2855408  67.6450507   6.2681235  78.8158343  58.3471200  13.0176063
  79.1707730  58.5742673  13.8770528  79.4630474  58.6789577  12.3953318
  84.5456080  61.4689636   3.7225392  84.4073978  61.6591232   2.7946581
  84.1892298  62.2309019   4.1793443  72.7098206  55.4547731   9.8022404
  73.3497585  55.3136490   9.1045367  71.8775736  55.1682244   9.4261006
  84.5725459  63.5366163   8.7336663  85.0061966  63.4441452   9.5819717
  85.2857040  63.5123663   8.0956679  73.4858510  64.7550161   5.9157396
  74.2799108  64.2600481   5.7139971  72.7750202  64.2268024   5.5525102
  78.3053354  67.1368257  10.2669764  78.3590376  67.7059193  11.0347480
  77.4368136  67.3070142   9.9023801  69.7941273  58.8993243   1.9917149
  68.8638861  58.8377699   2.2087111  69.8898745  58.3769196   1.1953790
  69.7126822  55.4248056   4.5795390  69.9733640  56.3393389   4.4704551
  70.5343995  54.9572498   4.7292003  71.1851748  56.8385813  11.7494215
  71.8574801  56.6303175  11.1006864  70.3581534  56.6407899  11.3099447
  85.4341009  63.5789863  11.2669548  85.6276899  64.4835674  11.5128823
  85.3341627  63.1197282  12.1008134  77.0877320  53.4647754  13.7659876
  76.4405235  54.1637704  13.6724352  77.8578335  53.8983898  14.1336124
  80.4956118  63.7296606  16.8410429  80.3441624  63.5007158  15.9240513
  80.4860797  64.6867208  16.8541774  77.2641454  61.3028519  11.8256696
  78.1933514  61.4539678  11.6525663  76.8432484  61.3912540  10.9705342
  76.0629786  65.3279183   9.5955233  75.9240871  64.9597968  10.4681171
  75.2744382  65.8426823   9.4239191  76.6577938  70.4288280   0.9380770
  76.8329693  69.9576323   1.7526392  75.9710726  71.0554046   1.1662030
  77.6135001  64.7060786   6.9844071  77.2784833  64.6661556   7.8801721
  77.1138947  64.0405502   6.5114481  71.5879245  60.1128416  12.5096652
  71.4499043  59.3808655  13.1108191  72.4984168  60.0237316  12.2280840
  80.5494192  62.0516820  -2.7418869  79.9323363  61.3263648  -2.8385817
  80.0810681  62.8126181  -3.0851795  74.2161545  59.8248375  11.9980332
  74.9261164  59.1841568  11.9566950  74.1730854  60.0761270  12.9206513
  82.2048324  66.7615729  14.9186911  82.1460870  66.0774949  14.2517494
  82.6067843  67.5034719  14.4667537  72.9290479  56.8113593  13.8175971
  72.3927836  56.3604332  14.4697568  72.3407188  56.9459502  13.0746436
  71.2239023  73.5777643   7.7120630  71.4635621  74.2096167   8.3899648
  70.3808219  73.2265683   7.9985989  72.3392738  56.2702245  -3.6197565
  71.4622205  56.1491045  -3.9835318  72.8150491  55.4788323  -3.8718676
  82.2065731  64.7255313  13.1500891  81.3192510  64.3881234  13.2727290
  82.7764282  63.9938344  13.3869656  63.8594879  61.0579404   6.4743942
  64.5465918  60.7441134   5.8864957  63.7043007  61.9620769   6.2011193
  68.6629601  55.9469601  10.9028966  68.5787789  55.3395270  10.1679376
  67.8412307  56.4378619  10.9038462  75.7366885  69.3856765  10.1162134
  75.6637056  70.1911736  10.6281438  75.2944278  69.5848731   9.2910155
  75.5256664  68.6228535   3.6264955  74.7424186  69.1650215   3.7203180
  76.2249410  69.1402515   4.0259197  78.8353315  54.4323164   6.2699161
  79.3322014  53.6793127   5.9500231  78.0640296  54.4687481   5.7042370
  86.6883072  60.1363530   7.9117452  86.6772948  61.0188245   7.5411385
  85.8200451  59.7835081   7.7171989  78.1965568  69.2843599  12.2720293
  78.9093541  69.9191064  12.1996194  77.7055597  69.3807465  11.4560294
  79.9183095  63.1894852   3.8437584  78.9839374  63.3096314   3.6742289
  80.0959764  62.2867318   3.5797594  75.4188283  56.5740547   5.9970845
  75.0486071  56.0211588   6.6851751  75.9147376  55.9698681   5.4445845
  83.3055647  59.0312171   4.3787618  83.7716099  59.8640163   4.3047921
  83.7563147  58.5657153   5.0832877  73.2477482  67.0338042  13.0925863
  73.9486941  67.6674525  13.2455258  72.7772597  67.3752774  12.3321503
  81.3731878  65.3755992   1.3773770  81.6491722  65.2612587   2.2867644
  80.5036376  64.9773477   1.3385943  81.2772309  51.3992758   8.4178520
  80.3635389  51.6296985   8.5860727  81.7065411  51.4831202   9.2692552
  81.0478768  59.5882650  10.9178414  80.3950218  59.8358557  10.2630866
  81.4259148  58.7746788  10.5840891  78.0085942  69.6242343   5.0206584
  78.1908336  68.8063999   5.4834336  78.8318928  69.8410035   4.5831474
  78.3428107  68.5510528   2.2821632  78.8715874  68.0402983   1.6691795
  78.6056327  68.2353058   3.1467165  77.0966341  60.3302461  17.4044451
  76.4206978  60.2296590  18.0746826  77.9193975  60.1741675  17.8680448
  68.8445200  66.5674397  10.0256966  69.4298637  65.8218085  10.1584870
  68.6470038  66.8778354  10.9093630  71.6983855  69.6025645   5.0419408
  71.0294230  70.0871773   4.5583448  71.5596725  69.8494865   5.9562787
  63.4362855  59.1379998   8.7461409  63.4746954  58.6043588   9.5398527
  62.9303147  58.6115203   8.1272386  75.8389124  71.6369388  11.6402067
  76.3907432  71.8001010  12.4051152  76.1795317  72.2273826  10.9682092
  70.8153617  53.9844538  12.2423951  70.8794943  54.8459369  11.8301349
  70.7520737  53.3718540  11.5096310  70.2905889  56.0567671  15.8896986
  70.9177928  55.6744748  16.5034510  69.4333808  55.8381873  16.2552678
  80.6899998  66.4630646  17.4950721  81.2339902  67.0760604  17.0005676
  80.1086843  67.0210224  18.0117734  67.0671432  57.8644100   1.8215341
  67.3624873  56.9554778   1.7682394  66.1659468  57.8431839   1.4996343
  78.9757511  69.5851364   8.6265749  78.8508650  68.7841104   8.1176694
  79.6336602  70.0797557   8.1379719  70.5965679  55.9400096   7.8042889
  69.8752265  56.5536064   7.6650362  71.3858935  56.4757861   7.7259535
  81.0392419  67.3860384  10.2545299  80.0922755  67.2665735  10.1823626
  81.3875193  66.4982882  10.3371560  73.3991993  53.2754523  14.0783541
  73.9226395  53.5216819  14.8409850  73.1804326  54.1074558  13.6586678
  68.7959274  55.5458198   1.9454666  68.4671980  54.6655576   1.7629772
  69.1498645  55.4905866   2.8331055  78.0438853  67.1813100   6.4549651
  77.8963815  66.2529808   6.6357221  78.8692346  67.2033191   5.9706726
  71.9101097  55.8331167   2.3130143  72.2497169  56.3617089   1.5908752
  72.3573217  56.1711573   3.0888710  81.6472975  68.0041659   7.5414524
  82.5719522  67.7984520   7.4038975  81.4788278  67.7558060   8.4503865
  74.6044538  54.2168218  11.7633211  74.2641358  53.4176031  12.1653891
  73.8983544  54.5169929  11.1910045  75.2561010  51.3017530  10.2160534
  76.0787079  50.8278009  10.0939425  75.4999073  52.0808014  10.7159221
  73.8969244  54.3305789   0.5123436  74.6177607  54.7087042   0.0087153
  73.2734548  55.0494666   0.6158414  78.0400367  55.0350938   1.4481768
  78.2563981  55.9175576   1.1470597  77.5594434  54.6437151   0.7187410
  72.7799588  57.9936651   8.0252513  72.6344169  58.3076954   8.9176795
  72.3024792  58.6121551   7.4723412  74.6395971  54.9839199   8.0733403
  74.6257540  54.0880292   7.7365701  75.3568399  54.9909863   8.7071689
  76.4922102  55.4176539  10.1186530  76.2339880  56.3393610  10.1170860
  75.9607142  55.0206974  10.8086994  81.4368291  68.5227326   2.8976615
  81.6105168  67.9573749   2.1450468  81.9297182  69.3228221   2.7156105
  67.2545251  60.5341996  10.9640174  66.7098719  61.3101803  11.0960449
  68.1324600  60.8812800  10.8059296  74.0432867  53.8653579   3.3420973
  74.1648778  52.9370226   3.5411860  73.7534910  53.8792265   2.4299288
  76.9124058  51.5508490   6.4787693  76.9345754  51.6147823   5.5239672
  77.3292117  50.7112998   6.6728199  87.2907682  61.2863749   4.5166915
  87.7338828  60.5371075   4.1186038  86.4134192  61.2773886   4.1340647
  68.0411272  59.6611892  13.8570331  67.2993008  59.8094527  14.4434962
  67.7204017  59.9220157  12.9937081  84.3234886  65.2893796   1.5260844
  84.8486210  65.6281069   0.8010165  84.2357239  64.3540812   1.3423979
  75.9854935  69.2027870  13.6550721  76.2942062  68.9577017  14.5273421
  76.7830417  69.4074508  13.1669591  76.0075547  71.3565780   5.8856098
  75.5680537  70.8642158   6.5788954  76.7583664  70.8138747   5.6448173
  68.4867886  67.5477320   5.8880726  69.3125906  67.2481092   5.5079369
  68.1361938  66.7784943   6.3370514  73.4549419  66.9003789   7.9578399
  72.8329429  66.2374494   7.6580627  74.1254286  66.9264921   7.2752047
  66.6876491  65.4663647   6.8469659  65.8508399  65.0385821   6.6653661
  66.6600137  65.6596090   7.7840451  73.5273947  55.3785577  17.5510905
  73.5762102  56.2547700  17.1688675  74.0696461  54.8362970  16.9782549
  84.0128792  65.9226700  16.8312042  83.2224336  65.9050839  16.2916542
  83.7762147  66.4614994  17.5861079  84.1326667  62.7719166  14.1444771
  84.1824672  62.6069174  15.0860294  84.0240591  61.9046425  13.7542652
  73.0162926  65.4507712   1.4336860  73.1651047  66.1343176   0.7803533
  73.8229370  65.4312802   1.9486316  81.4230430  58.7550094  15.4604078
  82.3240293  58.6156559  15.1688075  81.4978404  58.9204549  16.4002255
  75.7573235  56.1316949  14.3057264  74.8876545  56.4250515  14.0339853
  75.9932716  56.7157394  15.0264528  85.6344864  65.1916108  14.3886793
  85.3429673  65.5546088  15.2250253  85.0216996  64.4783116  14.2100125
  86.8340547  62.7568988   6.9089363  87.6687438  63.1958792   7.0726923
  86.9699675  62.2807641   6.0897609  83.8832053  60.3148723  12.8566851
  84.3586174  60.5076369  12.0485702  82.9597618  60.3707908  12.6110234
  70.7715559  61.4772890   2.4397929  70.5261601  60.5735220   2.6378139
  70.9411474  61.4790040   1.4977407  78.4612269  52.3496566  11.8222684
  78.9794213  53.0857593  11.4969173  78.1067402  52.6560559  12.6569444
  70.0411207  57.2101247  -0.0615910  69.3480452  57.2845602  -0.7175874
  69.7962959  56.4461591   0.4605607  78.7124863  48.7696849   7.3423581
  78.9926617  48.1020038   7.9684008  79.4975470  48.9625944   6.8298245
  76.5158332  67.9455843  -1.0951393  75.9432299  68.5646030  -1.5480921
  77.0891125  68.4955204  -0.5611471  82.5833722  57.1914483  11.0895156
  83.5351144  57.2912580  11.1107380  82.4137172  56.3992751  11.5993240
  80.6048101  54.2770066  11.2754557  80.0098033  54.5575079  10.5801046
  80.3197798  54.7663967  12.0471298  85.0621799  60.4120602  10.2037456
  85.0298119  59.4736603  10.3897140  85.6722423  60.4904639   9.4703281
  76.9005130  59.2816655  -3.7535340  77.8464235  59.1522863  -3.6846922
  76.5219375  58.5431317  -3.2765912  85.2116288  57.2031646  10.2495739
  84.6955336  56.4190102  10.0625668  86.0956236  56.8750362  10.4142258
  82.8727015  50.9472661   6.2091552  82.6751836  50.6387749   7.0934884
  83.4826720  51.6734300   6.3389481  90.8798349  61.4736609   9.3443493
  91.6101738  61.2121897   9.9051196  90.2705295  60.7365331   9.3845561
  88.9613646  59.6144472   9.9417944  88.2346810  59.4800437   9.3334435
  88.5460933  59.9221300  10.7474662  76.7843823  63.3334401  17.7065317
  77.7046832  63.5113000  17.9005363  76.7493406  62.3890447  17.5545016
  75.0848047  57.2066632  -3.8180455  74.1779503  56.9099744  -3.7417741
  75.3624028  56.9096450  -4.6846169  66.0025988  58.5272995   6.6318591
  65.6828772  57.6738303   6.3392965  65.4559416  58.7421573   7.3876559
  69.7805895  61.2435436  10.3488098  69.9991905  62.1752544  10.3676132
  70.1931669  60.8843410  11.1342902  76.7010113  51.7503521   2.3363786
  75.8910841  51.4050606   2.7119032  77.3894530  51.4411065   2.9251398
  78.6300661  50.8281568   3.9588083  79.1831700  51.2477022   4.6178106
  78.8670748  49.9017316   4.0011039  74.6533761  56.8168642  19.7390847
  74.5530487  57.7662999  19.6702938  74.4355303  56.4886881  18.8666917
  73.8546832  54.0653567  -3.6768476  74.7165996  54.3908465  -3.4172658
  74.0397176  53.2785063  -4.1895410  65.8714248  62.1475907   8.6011713
  65.1777719  61.7329859   8.0881667  66.6187239  62.1896443   8.0045132
  82.0079468  52.9382093   3.4666747  81.4278138  53.5966897   3.0844800
  81.7415401  52.1159438   3.0554165  80.4583035  52.3387151   5.6688068
  80.9582813  52.4503686   4.8602386  81.1018643  52.0348204   6.3088876
  74.5165031  60.2465781  18.5555909  74.0332112  61.0466141  18.7619798
  74.6025970  60.2573726  17.6023353  67.7850990  62.0794160   6.4777728
  67.7621678  62.1781848   5.5259611  68.0951627  62.9259311   6.7994894
  70.4438368  64.1370315  10.5924342  71.3981622  64.1054258  10.5254274
  70.2450892  63.6760939  11.4074568  71.0337750  62.7071431  13.1595140
  71.8530639  63.2015510  13.1829977  71.3074558  61.7903400  13.1312707
  80.7904346  55.0982184   2.5223095  79.9030201  55.3831834   2.3043290
  81.2058336  54.9375947   1.6750372  84.1418883  55.1228705   6.2377435
  84.9179273  55.6125157   6.5102052  83.4167017  55.5486759   6.6949304
  86.5791441  55.8356324   7.2951375  87.1735932  55.5952060   6.5844684
  86.6518025  55.1163454   7.9224912  68.7988597  69.6789935   7.6094540
  68.6643065  68.9190336   7.0432538  68.3820659  70.4030835   7.1423329
  80.7645370  60.6136720   2.7373386  80.7080572  61.0705271   1.8981018
  81.3173713  59.8527404   2.5596228  84.5750176  56.4026452   3.5623505
  84.3187110  56.0023087   4.3931713  83.9503044  57.1170245   3.4373644
  88.8862514  59.1422525   6.0694797  88.3262072  59.2115714   6.8426359
  88.2806017  58.9663509   5.3494293  71.9557723  70.5759252   7.8212983
  71.8390107  71.5204684   7.7191673  71.1350169  70.2732813   8.2098782
  81.8434257  65.3009388  -1.3330424  82.6779861  64.8690586  -1.5152950
  81.6818600  65.1291401  -0.4053530  81.4980150  61.8041501   0.0325915
  81.4428953  61.6385772  -0.9085641  80.8726205  62.5117534   0.1888105
  66.2872665  57.0409565  13.8587337  66.9331528  56.5308519  14.3474562
  66.0789816  57.7778247  14.4330762  78.8126057  64.1090413  19.3579478
  79.6817216  64.2831065  18.9966113  78.3332808  64.9284830  19.2355207
  74.8076275  51.3049610  -0.3888767  74.7954945  52.2491450  -0.2320496
  75.6999697  51.1219755  -0.6829306  72.9812237  71.2287514  11.0368911
  73.8839484  71.2611124  11.3535406  72.7549607  70.2987965  11.0515247
  74.7365839  69.9818500   7.6978990  73.7861470  69.9820362   7.5843362
  75.0398325  69.2351235   7.1815024  78.6228394  47.8992387   3.8657170
  77.8560790  47.3450873   4.0113852  79.0339099  47.9714255   4.7271322
  70.6270156  54.1877182  17.9562351  71.4901617  53.8313987  18.1665676
  70.0535566  53.8491077  18.6437756  87.2808239  75.7706467   8.6986277
  86.9426750  75.6547532   7.8106812  88.1498007  75.3697632   8.6787283
  87.7628022  76.9241319  14.6572482  87.7516662  76.5294117  13.7852986
  87.9248661  76.1907391  15.2506254  80.6859486  79.1193135   7.5267388
  81.4780778  78.7783959   7.1113688  80.9256137  79.2288110   8.4469542
  84.4835283  79.7078430  13.6051666  84.1925149  80.6124061  13.4898333
  85.1192267  79.7494958  14.3195736  85.4091490  77.0855279  10.1953026
  86.0055062  76.8611301   9.4809989  85.4666461  76.3440024  10.7978474
  92.9493648  67.1927300  11.2005547  92.6176973  68.0622711  10.9766762
  92.3539262  66.8763584  11.8799578  89.4425168  79.3939846  10.6001460
  89.1425891  80.2964885  10.4917267  89.0976227  79.1272029  11.4522613
  82.8937649  75.8453643   6.6338165  81.9688146  75.7129857   6.8415856
  83.1422063  76.6247862   7.1308107  92.8422312  71.9122386   8.2798897
  91.9339189  71.8437794   7.9857658  92.7909908  72.3894331   9.1080723
  80.2546460  75.4886916   7.4681954  80.3838842  75.7421395   8.3821365
  79.5743912  76.0814624   7.1486609  86.9163177  73.3312032  16.2233795
  86.1396512  73.8905952  16.2136659  87.5553741  73.8168815  16.7448665
  94.7083958  70.1138824  10.0576771  94.0658338  70.4071358   9.4116566
  94.2038887  69.9991745  10.8629968  85.1709550  76.1397485  15.7851762
  85.9124234  76.6782529  15.5086585  84.4646535  76.7663774  15.9423314
  90.6464889  78.2826625  14.3823923  91.0548245  77.8409036  13.6378556
  89.9242151  77.7079253  14.6358116  86.9995959  73.2199232  11.7557480
  87.8457155  73.6438646  11.8992129  86.9394597  72.5632857  12.4496043
  90.1495405  70.8803601  13.4138654  89.9056337  71.6345661  12.8772930
  90.4255335  71.2588948  14.2485901  92.1033868  77.4242213  12.0915919
  92.3150763  78.0673973  11.4150300  92.0563616  76.5904530  11.6237849
  89.7060097  70.0360034   8.9952492  88.8444576  70.3341287   9.2869229
  89.7322531  70.2530432   8.0633524  83.4145747  78.1273706   8.3406060
  83.9847104  78.5560974   7.7023545  84.0053859  77.8456290   9.0390246
  83.9070914  73.2937133  16.5867072  83.2769574  73.9753414  16.8202469
  83.8007001  73.1820215  15.6420210  79.2015886  72.9608929   7.5132996
  78.4114940  73.2166458   7.0373107  79.6927133  73.7757267   7.6185036
  81.1530631  73.3253508   4.4716473  80.3561795  73.4372203   4.9899968
  80.9256224  73.6640161   3.6057363  86.9836299  79.8498212  12.4198987
  87.0480732  80.3118619  13.2557159  86.2747223  79.2195577  12.5481297
  77.4853589  73.2139420   9.9447987  77.7361627  74.0986430  10.2105563
  78.0213137  73.0344021   9.1723079  83.1851656  67.5957899  18.9492323
  82.7918602  67.0424098  19.6239967  84.0017797  67.9068477  19.3398840
  86.1019617  69.0115778  16.5412579  86.8429331  69.6122931  16.4617042
  86.3337540  68.2693416  15.9830622  81.2460955  74.1972145  14.8190809
  81.1314470  73.2957403  15.1197908  80.3905473  74.4435842  14.4675626
  88.3252793  82.1389886  16.4178310  87.8816647  81.3526264  16.0999214
  88.9870007  82.3269036  15.7522200  83.0839914  83.6685687  10.9438988
  83.6347339  83.5402751  10.1715982  82.2451390  83.9680576  10.5933881
  90.4234031  82.4192686  14.4459711  90.4052506  83.2401567  13.9539980
  91.3453951  82.2946761  14.6709852  86.8807085  79.9336815  15.2883219
  87.4135422  79.1725103  15.0582527  86.3521166  79.6410467  16.0307374
  90.0476780  65.0396881  10.8176861  89.7041050  65.9298523  10.7415972
  90.4155743  64.8498539   9.9546446  89.1273321  67.4101536   8.7826094
  88.6238116  67.3731671   7.9693900  89.4203927  68.3194279   8.8422751
  85.3716206  67.4940266   7.7892276  86.2369203  67.2983075   7.4298166
  85.4393715  67.2650618   8.7161633  82.9778526  69.7242474   5.1608643
  83.5522277  69.5017655   4.4281836  83.5649508  69.7931168   5.9137244
  85.2801193  66.5983723   3.8883712  84.6265606  66.2832740   3.2640327
  85.2381667  65.9759463   4.6143535  88.5138934  73.0865656   8.2131360
  87.5961495  73.3080603   8.0553048  88.9299077  73.1611967   7.3543067
  91.8464446  64.2990440   5.9194599  92.1523323  63.4387804   5.6320514
  92.5717051  64.8908060   5.7193593  78.1388802  74.7021127   4.3076197
  77.9413202  74.1090488   3.5827263  77.5835466  74.3973337   5.0252135
  86.1185526  74.5944233   6.4270790  86.1734135  73.6418070   6.3513266
  85.3076728  74.7503672   6.9112088  84.0577886  73.2121293   4.1861169
  83.2445751  73.5115464   4.5926361  84.5536880  72.8176982   4.9035651
  89.6552097  73.6763118  13.0176063  90.0101485  73.9034591  13.8770528
  90.3024228  74.0081494  12.3953318  83.5491960  70.7839649   9.8022404
  84.1891340  70.6428408   9.1045367  82.7169491  70.4974162   9.4261006
  80.5520577  70.7539974   4.5795390  80.8127394  71.6685307   4.4704551
  81.3737749  70.2864416   4.7292003  82.0245502  72.1677731  11.7494215
  82.6968555  71.9595093  11.1006864  81.1975289  71.9699817  11.3099447
  87.9271074  68.7939672  13.7659876  87.2798989  69.4929621  13.6724352
  88.6972089  69.2275816  14.1336124  91.3349872  79.0588524  16.8410429
  91.1835378  78.8299075  15.9240513  91.3254551  80.0159125  16.8541774
  88.1035208  76.6320437  11.8256696  89.0327268  76.7831596  11.6525663
  87.6826238  76.7204457  10.9705342  86.9023540  80.6571101   9.5955233
  86.7634626  80.2889885  10.4681171  86.1138136  81.1718740   9.4239191
  82.4272999  75.4420334  12.5096652  82.2892797  74.7100573  13.1108191
  83.3377923  75.3529234  12.2280840  85.0555300  75.1540293  11.9980332
  85.7654918  74.5133485  11.9566950  85.0124608  75.4053188  12.9206513
  93.0442079  82.0907646  14.9186911  92.9854625  81.4066866  14.2517494
  93.4461597  82.8326636  14.4667537  83.7684234  72.1405511  13.8175971
  83.2321591  71.6896249  14.4697568  83.1800942  72.2751420  13.0746436
  93.0459486  80.0547230  13.1500891  92.1586265  79.7173152  13.2727290
  93.6158037  79.3230262  13.3869656  74.6988633  76.3871322   6.4743942
  75.3859673  76.0733052   5.8864957  74.5436762  77.2912687   6.2011193
  79.5023355  71.2761519  10.9028966  79.4181544  70.6687188  10.1679376
  78.6806062  71.7670537  10.9038462  89.6747069  69.7615082   6.2699161
  90.1715769  69.0085044   5.9500231  88.9034051  69.7979399   5.7042370
  86.2582038  71.9032465   5.9970845  85.8879825  71.3503505   6.6851751
  86.7541130  71.2990599   5.4445845  84.0871236  82.3629960  13.0925863
  84.7880696  82.9966443  13.2455258  83.6166351  82.7044692  12.3321503
  92.1166064  66.7284676   8.4178520  91.2029144  66.9588902   8.5860727
  92.5459165  66.8123120   9.2692552  91.8872522  74.9174568  10.9178414
  91.2343973  75.1650475  10.2630866  92.2652902  74.1038706  10.5840891
  87.9360095  75.6594379  17.4044451  87.2600732  75.5588508  18.0746826
  88.7587729  75.5033592  17.8680448  79.6838954  81.8966315  10.0256966
  80.2692391  81.1510003  10.1584870  79.4863793  82.2070272  10.9093630
  74.2756609  74.4671915   8.7461409  74.3140709  73.9335506   9.5398527
  73.7696902  73.9407121   8.1272386  81.6547371  69.3136456  12.2423951
  81.7188698  70.1751287  11.8301349  81.5914492  68.7010458  11.5096310
  81.1299644  71.3859588  15.8896986  81.7571683  71.0036666  16.5034510
  80.2727563  71.1673790  16.2552678  91.5293753  81.7922564  17.4950721
  92.0733657  82.4052522  17.0005676  90.9480597  82.3502142  18.0117734
  77.9065187  73.1936018   1.8215341  78.2018628  72.2846696   1.7682394
  77.0053223  73.1723757   1.4996343  81.4359434  71.2692014   7.8042889
  80.7146019  71.8827982   7.6650362  82.2252690  71.8049779   7.7259535
  84.2385747  68.6046441  14.0783541  84.7620149  68.8508737  14.8409850
  84.0198081  69.4366475  13.6586678  79.6353028  70.8750115   1.9454666
  79.3065734  69.9947494   1.7629772  79.9892399  70.8197784   2.8331055
  85.4438292  69.5460136  11.7633211  85.1035113  68.7467949  12.1653891
  84.7377299  69.8461847  11.1910045  86.0954764  66.6309448  10.2160534
  86.9180833  66.1569926  10.0939425  86.3392828  67.4099932  10.7159221
  83.6193343  73.3228569   8.0252513  83.4737924  73.6368872   8.9176795
  83.1418547  73.9413469   7.4723412  85.4789726  70.3131117   8.0733403
  85.4651295  69.4172210   7.7365701  86.1962154  70.3201781   8.7071689
  87.3315856  70.7468457  10.1186530  87.0733634  71.6685528  10.1170860
  86.8000897  70.3498892  10.8086994  78.0939005  75.8633913  10.9640174
  77.5492473  76.6393721  11.0960449  78.9718355  76.2104718  10.8059296
  84.8826622  69.1945497   3.3420973  85.0042533  68.2662143   3.5411860
  84.5928664  69.2084183   2.4299288  87.7517812  66.8800407   6.4787693
  87.7739509  66.9439741   5.5239672  88.1685871  66.0404916   6.6728199
  78.8805027  74.9903809  13.8570331  78.1386763  75.1386445  14.4434962
  78.5597771  75.2512075  12.9937081  86.8248690  84.5319788  13.6550721
  87.1335816  84.2868934  14.5273421  87.6224172  84.7366426  13.1669591
  77.5270246  80.7955565   6.8469659  76.6902154  80.3677739   6.6653661
  77.4993891  80.9888008   7.7840451  84.3667701  70.7077494  17.5510905
  84.4155857  71.5839617  17.1688675  84.9090215  70.1654887  16.9782549
  94.8522547  81.2518618  16.8312042  94.0618091  81.2342757  16.2916542
  94.6155901  81.7906911  17.5861079  94.9720422  78.1011084  14.1444771
  95.0218427  77.9361091  15.0860294  94.8634345  77.2338343  13.7542652
  92.2624184  74.0842012  15.4604078  93.1634047  73.9448477  15.1688075
  92.3372159  74.2496467  16.4002255  86.5966990  71.4608867  14.3057264
  85.7270299  71.7542433  14.0339853  86.8326470  72.0449312  15.0264528
  96.4738619  80.5208026  14.3886793  96.1823427  80.8838006  15.2250253
  95.8610750  79.8075034  14.2100125  94.7225807  75.6440640  12.8566851
  95.1979929  75.8368287  12.0485702  93.7991372  75.6999826  12.6110234
  89.3006024  67.6788484  11.8222684  89.8187967  68.4149511  11.4969173
  88.9461156  67.9852477  12.6569444  89.5518618  64.0988766   7.3423581
  89.8320371  63.4311955   7.9684008  90.3369225  64.2917862   6.8298245
  93.4227476  72.5206400  11.0895156  94.3744899  72.6204498  11.1107380
  93.2530926  71.7284669  11.5993240  91.4441856  69.6061983  11.2754557
  90.8491788  69.8866996  10.5801046  91.1591552  70.0955884  12.0471298
  96.0510042  72.5323563  10.2495739  95.5349091  71.7482020  10.0625668
  96.9349991  72.2042280  10.4142258  93.7120769  66.2764579   6.2091552
  93.5145590  65.9679667   7.0934884  94.3220475  67.0026218   6.3389481
  87.6237577  78.6626319  17.7065317  88.5440587  78.8404918  17.9005363
  87.5887160  77.7182364  17.5545016  76.8419742  73.8564913   6.6318591
  76.5222527  73.0030221   6.3392965  76.2953170  74.0713491   7.3876559
  80.6199650  76.5727354  10.3488098  80.8385660  77.5044462  10.3676132
  81.0325424  76.2135328  11.1342902  87.5403868  67.0795439   2.3363786
  86.7304596  66.7342524   2.7119032  88.2288284  66.7702983   2.9251398
  89.4694416  66.1573486   3.9588083  90.0225454  66.5768939   4.6178106
  89.7064502  65.2309234   4.0011039  85.4927515  72.1460559  19.7390847
  85.3924242  73.0954916  19.6702938  85.2749057  71.8178798  18.8666917
  76.7108002  77.4767824   8.6011713  76.0171474  77.0621777   8.0881667
  77.4580993  77.5188361   8.0045132  91.2976789  67.6679069   5.6688068
  91.7976568  67.7795603   4.8602386  91.9412397  67.3640122   6.3088876
  85.3558785  75.5757698  18.5555909  84.8725867  76.3758058  18.7619798
  85.4419724  75.5865643  17.6023353  78.6244745  77.4086078   6.4777728
  78.6015433  77.5073765   5.5259611  78.9345381  78.2551229   6.7994894
  81.2832123  79.4662233  10.5924342  82.2375376  79.4346175  10.5254274
  81.0844646  79.0052857  11.4074568  81.8731505  78.0363349  13.1595140
  82.6924394  78.5307428  13.1829977  82.1468312  77.1195317  13.1312707
  77.1266419  72.3701483  13.8587337  77.7725283  71.8600437  14.3474562
  76.9183570  73.1070165  14.4330762  89.6519811  79.4382330  19.3579478
  90.5210971  79.6122983  18.9966113  89.1726563  80.2576747  19.2355207
  89.4622149  63.2284304   3.8657170  88.6954545  62.6742791   4.0113852
  89.8732854  63.3006173   4.7271322  81.4663910  69.5169100  17.9562351
  82.3295372  69.1605905  18.1665676  80.8929321  69.1782995  18.6437756
  94.0245411  82.9249817  18.9492323  93.6312356  82.3716015  19.6239967
  94.8411551  83.2360395  19.3398840  96.9413372  84.3407696  16.5412579
  97.6823085  84.9414849  16.4617042  97.1731295  83.5985334  15.9830622
  91.9693398  86.7151506  15.8896986  92.5965437  86.3328583  16.5034510
  91.1121317  86.4965708  16.2552678  95.2061456  86.0369412  17.5510905
  95.2549611  86.9131535  17.1688675  95.7483970  85.4946805  16.9782549
  96.3321270  87.4752477  19.7390847  96.2317996  88.4246834  19.6702938
  96.1142812  87.1470716  18.8666917  87.9660173  87.6993401  13.8587337
  88.6119037  87.1892355  14.3474562  87.7577325  88.4362082  14.4330762
  92.3057664  84.8461018  17.9562351  93.1689126  84.4897823  18.1665676
  91.7323075  84.5074913  18.6437756  69.8506245  28.1400851   4.2196028
  70.3946149  28.7530809   3.7250983  69.2693090  28.6980429   4.7363041
  73.1735039  27.5996905   3.5557349  72.3830583  27.5821044   3.0161849
  72.9368394  28.1385199   4.3106386  67.9732303  25.7860618   6.0824784
  68.8423463  25.9601270   5.7211419  67.4939055  26.6055035   5.9600514
  79.6324779  37.4949244  -4.5129941  80.2703189  37.3755991  -5.2166601
  79.5145622  38.4430088  -4.4541989  76.4414485  37.4476672  -4.5768416
  76.1032997  37.3317736  -5.4647882  77.3104254  37.0467837  -4.5967410
  76.9234268  38.6011523   1.3817789  76.9122909  38.2064322   0.5098293
  77.0854908  37.8677596   1.9751561  73.6441530  41.3848635   0.3296973
  73.3531396  42.2894266   0.2143639  74.2798514  41.4265163   1.0441043
  74.5697736  38.7625484  -3.0801667  75.1661309  38.5381506  -3.7944704
  74.6272708  38.0210229  -2.4776219  78.6031415  41.0710051  -2.6753233
  78.3032138  41.9735090  -2.7837426  78.2582474  40.8042234  -1.8232080
  73.5852195  47.8354371  -9.7082266  73.5076224  48.7862196  -9.6293785
  72.9813838  47.4900244  -9.0507339  76.0769424  35.0082237   2.9479101
  75.3002758  35.5676157   2.9381966  76.7159987  35.4939020   3.4693972
  74.3315797  37.8167690   2.5097068  75.0730481  38.3552734   2.2331892
  73.6252782  38.4433979   2.6668620  79.8071136  39.9596830   1.1069230
  80.2154492  39.5179241   0.3623862  79.0848398  39.3849458   1.3603423
  76.1602206  34.8969437  -1.5197213  77.0063401  35.3208851  -1.3762564
  76.1000844  34.2403061  -0.8258650  80.1299951  40.5198021  -5.1378481
  79.5008813  40.6843735  -5.8402413  79.7425613  40.9339631  -4.3667517
  79.3101652  32.5573805   0.1383960  79.0662583  33.3115866  -0.3981764
  79.5861582  32.9359153   0.9731208  81.2640114  39.1012418  -1.1838774
  81.4757010  39.7444178  -1.8604393  81.2169863  38.2674734  -1.6516844
  72.5751994  39.8043911  -4.9348633  73.1453351  40.2331179  -5.5731148
  73.1660106  39.5226495  -4.2364447  73.0677160  34.9707338   3.3112378
  72.4375821  35.6523619   3.5447775  72.9613248  34.8590420   2.3665517
  82.3785942  41.9784373  -3.0116417  83.2003386  41.5764561  -3.2933735
  82.3748345  41.8752607  -2.0600301  76.1442546  41.5268417  -0.8555706
  76.2086978  41.9888824  -0.0197534  75.4353470  40.8965782  -0.7273396
  72.3457903  29.2728104   5.6737629  71.9524849  28.7194302   6.3485274
  73.1624043  29.5838682   6.0644147  75.2625864  30.6885983   3.2657886
  76.0035577  31.2893136   3.1862348  75.4943787  29.9463621   2.7075929
  70.4067202  35.8742350   1.5436116  70.2920717  34.9727608   1.8443215
  69.5511720  36.1206047   1.1920932  77.4859040  43.8160091   3.1423616
  77.0422894  43.0296469   2.8244521  78.1476253  44.0039241   2.4767507
  72.2446161  45.3455892  -2.3315705  72.7953586  45.2172956  -3.1038711
  71.4057637  45.6450781  -2.6820812  79.5840278  44.0962891   1.1705018
  79.5658753  44.9171772   0.6785287  80.5060198  43.9716966   1.3955159
  76.0413332  41.6107020   2.0128526  76.5741669  40.8495308   1.7827834
  75.5127413  41.3180672   2.7552680  82.3858891  38.9342033  -5.3585616
  81.7282565  39.6241294  -5.2705487  83.1899290  39.3238465  -5.0151629
  81.9626146  42.2692407  -9.1802531  81.5088473  41.4283317  -9.1237341
  81.3320112  42.9053805  -8.8427751  80.4059085  44.1068904  -8.2452713
  80.6982059  44.6673961  -8.9640348  80.9157706  44.3997465  -7.4899554
  75.3692710  44.8849255  -7.1559260  75.3268889  45.1110101  -8.0850728
  76.2855409  44.6512629  -7.0073459  78.8158344  35.3533322  -0.2578631
  79.1707732  35.5804796   0.6015835  79.4630475  35.6851699  -0.8801376
  84.5725461  40.5428285  -4.5418030  85.0061967  40.4503574  -3.6934976
  85.2857041  40.5185786  -5.1798014  78.3053355  44.1430379  -3.0084930
  78.3590378  44.7121316  -2.2407214  77.4368137  44.3132264  -3.3730893
  85.4341010  40.5851986  -2.0085145  85.6276900  41.4897796  -1.7625870
  85.3341628  40.1259405  -1.1746560  77.0877321  30.4709877   0.4905182
  76.4405236  31.1699826   0.3969659  77.8578336  30.9046020   0.8581431
  80.4956119  40.7358729   3.5655736  80.3441625  40.5069280   2.6485819
  80.4860798  41.6929330   3.5787081  77.2641455  38.3090641  -1.4497998
  78.1933515  38.4601801  -1.6229030  76.8432485  38.3974662  -2.3049351
  76.0629787  42.3341306  -3.6799460  75.9240873  41.9660090  -2.8073522
  75.2744383  42.8488945  -3.8515502  77.6135002  41.7122909  -6.2910622
  77.2784835  41.6723679  -5.3952973  77.1138948  41.0467624  -6.7640212
  71.5879246  37.1190539  -0.7658041  71.4499044  36.3870777  -0.1646502
  72.4984170  37.0299439  -1.0473853  74.2161547  36.8310498  -1.2774362
  74.9261165  36.1903690  -1.3187743  74.1730855  37.0823393  -0.3548181
  82.2048325  43.7677851   1.6432218  82.1460872  43.0837071   0.9762801
  82.6067844  44.5096841   1.1912844  72.9290481  33.8175716   0.5421278
  72.3927838  33.3666454   1.1942874  72.3407189  33.9521625  -0.2008258
  71.2239024  50.5839765  -5.5634063  71.4635622  51.2158289  -4.8855045
  70.3808221  50.2327805  -5.2768704  82.2065733  41.7317435  -0.1253803
  81.3192511  41.3943357  -0.0027404  82.7764284  41.0000466   0.1114963
  75.7366886  46.3918888  -3.1592560  75.6637058  47.1973859  -2.6473255
  75.2944279  46.5910853  -3.9844538  75.5256666  45.6290658  -9.6489738
  74.7424188  46.1712338  -9.5551513  76.2249411  46.1464637  -9.2495497
  78.1965570  46.2905722  -1.0034401  78.9093542  46.9253186  -1.0758499
  77.7055598  46.3869588  -1.8194399  73.2477483  44.0400165  -0.1828830
  73.9486943  44.6736648  -0.0299436  72.7772598  44.3814897  -0.9433191
  81.0478769  36.5944773  -2.3576280  80.3950219  36.8420680  -3.0123827
  81.4259149  35.7808911  -2.6913802  78.0085943  46.6304466  -8.2548109
  78.1908338  45.8126122  -7.7920357  78.8318929  46.8472158  -8.6923219
  78.3428108  45.5572651 -10.9933061  78.8715875  45.0465105 -11.6062899
  78.6056328  45.2415181 -10.1287528  77.0966342  37.3364584   4.1289757
  76.4206979  37.2358713   4.7992133  77.9193976  37.1803797   4.5925755
  68.8445201  43.5736520  -3.2497727  69.4298638  42.8280208  -3.1169823
  68.6470040  43.8840477  -2.3661063  71.6983856  46.6087767  -8.2335285
  71.0294232  47.0933895  -8.7171245  71.5596726  46.8556988  -7.3191906
  75.8389125  48.6431511  -1.6352627  76.3907433  48.8063133  -0.8703541
  76.1795318  49.2335949  -2.3072602  70.2905891  33.0629793   2.6142292
  70.9177930  32.6806871   3.2279817  69.4333810  32.8443995   2.9797985
  80.6899999  43.4692769   4.2196028  81.2339903  44.0822727   3.7250983
  80.1086844  44.0272347   4.7363041  78.9757512  46.5913487  -4.6488944
  78.8508652  45.7903226  -5.1577999  79.6336603  47.0859680  -5.1374974
  81.0392421  44.3922507  -3.0209394  80.0922756  44.2727858  -3.0931068
  81.3875194  43.5045005  -2.9383133  73.3991994  30.2816646   0.8028848
  73.9226396  30.5278942   1.5655157  73.1804327  31.1136680   0.3831985
  78.0438854  44.1875223  -6.8205042  77.8963816  43.2591930  -6.6397472
  78.8692347  44.2095314  -7.3047967  81.6472976  45.0103782  -5.7340169
  82.5719523  44.8046643  -5.8715718  81.4788279  44.7620183  -4.8250828
  76.4922103  32.4238662  -3.1568163  76.2339881  33.3455733  -3.1583833
  75.9607144  32.0269096  -2.4667699  81.4368292  45.5289449 -10.3778078
  81.6105170  44.9635872 -11.1304225  81.9297183  46.3290344 -10.5598588
  67.2545252  37.5404118  -2.3114519  66.7098720  38.3163926  -2.1794245
  68.1324602  37.8874923  -2.4695398  68.0411274  36.6674014   0.5815638
  67.2993010  36.8156650   1.1680268  67.7204018  36.9282280  -0.2817613
  75.9854936  46.2089993   0.3796028  76.2942063  45.9639139   1.2518727
  76.7830418  46.4136631  -0.1085102  76.0075548  48.3627902  -7.3898596
  75.5680539  47.8704281  -6.6965739  76.7583665  47.8200870  -7.6306520
  73.4549421  43.9065911  -5.3176294  72.8329430  43.2436616  -5.6174066
  74.1254287  43.9327043  -6.0002646  73.5273948  32.3847699   4.2756212
  73.5762103  33.2609822   3.8933982  74.0696462  31.8425092   3.7027855
  84.0128794  42.9288823   3.5557349  83.2224337  42.9112961   3.0161849
  83.7762148  43.4677116   4.3106386  84.1326669  39.7781289   0.8690078
  84.1824674  39.6131296   1.8105600  84.0240592  38.9108548   0.4787958
  81.4230431  35.7612217   2.1849384  82.3240294  35.6218682   1.8933382
  81.4978406  35.9266672   3.1247562  75.7573236  33.1379072   1.0302571
  74.8876546  33.4312638   0.7585159  75.9932717  33.7219517   1.7509834
  85.6344866  42.1978230   1.1132099  85.3429674  42.5608211   1.9495560
  85.0216997  41.4845239   0.9345431  83.8832054  37.3210845  -0.4187843
  84.3586175  37.5138491  -1.2268991  82.9597619  37.3770031  -0.6644459
  78.4612270  29.3558689  -1.4532009  78.9794214  30.0919716  -1.7785520
  78.1067403  29.6622682  -0.6185250  82.5833723  34.1976605  -2.1859537
  83.5351146  34.2974703  -2.1647313  82.4137173  33.4054874  -1.6761453
  80.6048102  31.2832188  -2.0000136  80.0098034  31.5637201  -2.6953648
  80.3197799  31.7726089  -1.2283395  76.7843824  40.3396524   4.4310623
  77.7046833  40.5175123   4.6250670  76.7493407  39.3952569   4.2790323
  69.7805897  38.2497559  -2.9266595  69.9991906  39.1814666  -2.9078562
  70.1931670  37.8905533  -2.1411792  74.6533762  33.8230764   6.4636154
  74.5530489  34.7725121   6.3948245  74.4355304  33.4949003   5.5912224
  74.5165032  37.2527903   5.2801215  74.0332114  38.0528263   5.4865104
  74.6025971  37.2635848   4.3268659  70.4438369  41.1432438  -2.6830351
  71.3981623  41.1116380  -2.7500419  70.2450893  40.6823062  -1.8680125
  71.0337752  39.7133554  -0.1159553  71.8530641  40.2077633  -0.0924716
  71.3074559  38.7965522  -0.1441986  68.7988598  46.6852057  -5.6660153
  68.6643066  45.9252458  -6.2322155  68.3820660  47.4092957  -6.1331364
  71.9557724  47.5821374  -5.4541711  71.8390108  48.5266807  -5.5563020
  71.1350170  47.2794936  -5.0655911  66.2872666  34.0471688   0.5832644
  66.9331529  33.5370642   1.0719869  66.0789817  34.7840370   1.1576069
  78.8126058  41.1152535   6.0824784  79.6817218  41.2893188   5.7211419
  78.3332809  41.9346952   5.9600514  72.9812238  48.2349636  -2.2385782
  73.8839485  48.2673247  -1.9219287  72.7549608  47.3050087  -2.2239446
  74.7365840  46.9880623  -5.5775703  73.7861471  46.9882485  -5.6911331
  75.0398326  46.2413357  -6.0939669  70.6270157  31.1939305   4.6807658
  71.4901618  30.8376110   4.8910982  70.0535567  30.8553200   5.3683062
  87.2808240  52.7768589  -4.5768416  86.9426751  52.6609654  -5.4647882
  88.1498008  52.3759754  -4.5967410  87.7628023  53.9303441   1.3817789
  87.7516664  53.5356239   0.5098293  87.9248662  53.1969514   1.9751561
  80.6859488  56.1255257  -5.7487305  81.4780780  55.7846082  -6.1641006
  80.9256138  56.2350232  -4.8285152  84.4835284  56.7140553   0.3296973
  84.1925150  57.6186184   0.2143639  85.1192268  56.7557081   1.0441043
  85.4091491  54.0917401  -3.0801667  86.0055063  53.8673424  -3.7944704
  85.4666462  53.3502147  -2.4776219  89.4425169  56.4001968  -2.6753233
  89.1425892  57.3027007  -2.7837426  89.0976229  56.1334152  -1.8232080
  82.8937651  52.8515765  -6.6416529  81.9688147  52.7191979  -6.4338837
  83.1422064  53.6309985  -6.1446586  80.2546462  52.4949039  -5.8072740
  80.3838843  52.7483518  -4.8933328  79.5743913  53.0876747  -6.1268085
  86.9163179  50.3374154   2.9479101  86.1396513  50.8968074   2.9381966
  87.5553742  50.8230937   3.4693972  85.1709551  53.1459608   2.5097068
  85.9124235  53.6844652   2.2331892  84.4646537  53.7725896   2.6668620
  90.6464891  55.2888748   1.1069230  91.0548247  54.8471159   0.3623862
  89.9242152  54.7141376   1.3603423  86.9995961  50.2261355  -1.5197213
  87.8457156  50.6500768  -1.3762564  86.9394598  49.5694979  -0.8258650
  90.1495406  47.8865723   0.1383960  89.9056338  48.6407784  -0.3981764
  90.4255337  48.2651071   0.9731208  92.1033869  54.4304336  -1.1838774
  92.3150764  55.0736095  -1.8604393  92.0563617  53.5966652  -1.6516844
  89.7060098  47.0422156  -4.2802202  88.8444577  47.3403410  -3.9885464
  89.7322532  47.2592555  -5.2121169  83.4145748  55.1335828  -4.9348633
  83.9847105  55.5623097  -5.5731148  84.0053860  54.8518413  -4.2364447
  83.9070915  50.2999256   3.3112378  83.2769575  50.9815537   3.5447775
  83.8007003  50.1882337   2.3665517  79.2015887  49.9671052  -5.7621697
  78.4114941  50.2228580  -6.2381587  79.6927135  50.7819390  -5.6569657
  81.1530633  50.3315631  -8.8038221  80.3561796  50.4434325  -8.2854725
  80.9256225  50.6702283  -9.6697330  86.9836300  56.8560334  -0.8555706
  87.0480733  57.3180741  -0.0197534  86.2747224  56.2257699  -0.7273396
  77.4853590  50.2201542  -3.3306707  77.7361629  51.1048552  -3.0649131
  78.0213139  50.0406144  -4.1031615  83.1851658  44.6020022   5.6737629
  82.7918603  44.0486220   6.3485274  84.0017798  44.9130600   6.0644147
  86.1019619  46.0177901   3.2657886  86.8429332  46.6185054   3.1862348
  86.3337541  45.2755538   2.7075929  81.2460957  51.2034268   1.5436116
  81.1314472  50.3019525   1.8443215  80.3905474  51.4497965   1.1920932
  88.3252794  59.1452008   3.1423616  87.8816648  58.3588387   2.8244521
  88.9870008  59.3331159   2.4767507  83.0839915  60.6747810  -2.3315705
  83.6347341  60.5464873  -3.1038711  82.2451391  60.9742699  -2.6820812
  90.4234032  59.4254808   1.1705018  90.4052508  60.2463689   0.6785287
  91.3453952  59.3008883   1.3955159  86.8807087  56.9398938   2.0128526
  87.4135423  56.1787226   1.7827834  86.3521168  56.6472589   2.7552680
  85.3716208  44.5002389  -5.4862417  86.2369205  44.3045197  -5.8456528
  85.4393717  44.2712740  -4.5593061  82.9778527  46.7304596  -8.1146051
  83.5522279  46.5079778  -8.8472858  83.5649509  46.7993291  -7.3617449
  88.5138935  50.0927779  -5.0623333  87.5961496  50.3142726  -5.2201645
  88.9299079  50.1674089  -5.9211626  78.1388803  51.7083249  -8.9678497
  77.9413203  51.1152610  -9.6927430  77.5835467  51.4035460  -8.2502558
  86.1185527  51.6006356  -6.8483904  86.1734137  50.6480192  -6.9241427
  85.3076729  51.7565795  -6.3642605  84.0577887  50.2183416  -9.0893525
  83.2445752  50.5177586  -8.6828333  84.5536881  49.8239104  -8.3719042
  89.6552098  50.6825240  -0.2578631  90.0101486  50.9096713   0.6015835
  90.3024230  51.0143617  -0.8801376  83.5491962  47.7901771  -3.4732290
  84.1891341  47.6490530  -4.1709326  82.7169492  47.5036285  -3.8493688
  80.5520578  47.7602096  -8.6959303  80.8127395  48.6747429  -8.8050142
  81.3737750  47.2926539  -8.5462690  82.0245503  49.1739853  -1.5260478
  82.6968557  48.9657215  -2.1747829  81.1975290  48.9761939  -1.9655246
  87.9271075  45.8001794   0.4905182  87.2798990  46.4991744   0.3969659
  88.6972091  46.2337938   0.8581431  91.3349873  56.0650646   3.5655736
  91.1835380  55.8361198   2.6485819  91.3254553  57.0221248   3.5787081
  88.1035210  53.6382559  -1.4497998  89.0327270  53.7893719  -1.6229030
  87.6826240  53.7266580  -2.3049351  86.9023541  57.6633224  -3.6799460
  86.7634627  57.2952008  -2.8073522  86.1138138  58.1780863  -3.8515502
  82.4273001  52.4482456  -0.7658041  82.2892798  51.7162695  -0.1646502
  83.3377924  52.3591356  -1.0473853  85.0555301  52.1602416  -1.2774362
  85.7654920  51.5195608  -1.3187743  85.0124609  52.4115310  -0.3548181
  93.0442080  59.0969769   1.6432218  92.9854626  58.4128989   0.9762801
  93.4461598  59.8388759   1.1912844  83.7684235  49.1467633   0.5421278
  83.2321592  48.6958372   1.1942874  83.1800944  49.2813542  -0.2008258
  93.0459487  57.0609353  -0.1253803  92.1586266  56.7235275  -0.0027404
  93.6158038  56.3292384   0.1114963  74.6988634  53.3933445  -6.8010751
  75.3859674  53.0795175  -7.3889736  74.5436763  54.2974809  -7.0743500
  79.5023356  48.2823641  -2.3725728  79.4181545  47.6749311  -3.1075318
  78.6806063  48.7732660  -2.3716231  86.2582039  48.9094588  -7.2783848
  85.8879827  48.3565628  -6.5902942  86.7541132  48.3052721  -7.8308848
  84.0871238  59.3692083  -0.1828830  84.7880697  60.0028566  -0.0299436
  83.6166353  59.7106814  -0.9433191  91.8872524  51.9236690  -2.3576280
  91.2343974  52.1712598  -3.0123827  92.2652903  51.1100828  -2.6913802
  87.9360097  52.6656501   4.1289757  87.2600734  52.5650631   4.7992133
  88.7587730  52.5095715   4.5925755  79.6838956  58.9028438  -3.2497727
  80.2692393  58.1572126  -3.1169823  79.4863794  59.2132394  -2.3661063
  74.2756610  51.4734038  -4.5293284  74.3140710  50.9397629  -3.7356166
  73.7696903  50.9469243  -5.1482307  81.6547373  46.3198578  -1.0330742
  81.7188699  47.1813409  -1.4453344  81.5914493  45.7072580  -1.7658383
  81.1299645  48.3921711   2.6142292  81.7571684  48.0098788   3.2279817
  80.2727564  48.1735913   2.9797985  91.5293754  58.7984686   4.2196028
  92.0733658  59.4114644   3.7250983  90.9480599  59.3564265   4.7363041
  77.9065188  50.1998140 -11.4539353  78.2018629  49.2908819 -11.5072299
  77.0053224  50.1785880 -11.7758350  81.4359435  48.2754137  -5.4711804
  80.7146021  48.8890104  -5.6104331  82.2252691  48.8111902  -5.5495158
  84.2385749  45.6108563   0.8028848  84.7620150  45.8570860   1.5655157
  84.0198082  46.4428598   0.3831985  79.6353030  47.8812238 -11.3300028
  79.3065736  47.0009617 -11.5124922  79.9892400  47.8259906 -10.4423638
  85.4438294  46.5522258  -1.5121482  85.1035114  45.7530071  -1.1100802
  84.7377300  46.8523969  -2.0844649  86.0954765  43.6371571  -3.0594159
  86.9180835  43.1632049  -3.1815269  86.3392829  44.4162055  -2.5595473
  83.6193344  50.3290691  -5.2502180  83.4737925  50.6430994  -4.3577899
  83.1418548  50.9475592  -5.8031282  85.4789727  47.3193239  -5.2021291
  85.4651296  46.4234333  -5.5388993  86.1962155  47.3263903  -4.5683005
  87.3315858  47.7530580  -3.1568163  87.0733636  48.6747650  -3.1583833
  86.8000898  47.3561014  -2.4667699  78.0939006  52.8696036  -2.3114519
  77.5492474  53.6455844  -2.1794245  78.9718356  53.2166840  -2.4695398
  78.8805028  51.9965932   0.5815638  78.1386764  52.1448567   1.1680268
  78.5597772  52.2574198  -0.2817613  86.8248691  61.5381910   0.3796028
  87.1335817  61.2931057   1.2518727  87.6224173  61.7428549  -0.1085102
  77.5270247  57.8017687  -6.4285034  76.6902155  57.3739862  -6.6101033
  77.4993892  57.9950131  -5.4914243  84.3667703  47.7139617   4.2756212
  84.4155858  48.5901740   3.8933982  84.9090217  47.1717010   3.7027855
  94.8522548  58.2580740   3.5557349  94.0618092  58.2404879   3.0161849
  94.6155903  58.7969034   4.3106386  94.9720423  55.1073207   0.8690078
  95.0218428  54.9423214   1.8105600  94.8634347  54.2400466   0.4787958
  92.2624186  51.0904135   2.1849384  93.1634048  50.9510600   1.8933382
  92.3372160  51.2558590   3.1247562  86.5966991  48.4670989   1.0302571
  85.7270300  48.7604555   0.7585159  86.8326471  49.0511434   1.7509834
  96.4738620  57.5270148   1.1132099  96.1823428  57.8900129   1.9495560
  95.8610751  56.8137156   0.9345431  94.7225808  52.6502763  -0.4187843
  95.1979930  52.8430409  -1.2268991  93.7991374  52.7061949  -0.6644459
  89.3006025  44.6850606  -1.4532009  89.8187969  45.4211633  -1.7785520
  88.9461158  44.9914600  -0.6185250  93.4227477  49.5268523  -2.1859537
  94.3744900  49.6266621  -2.1647313  93.2530928  48.7346791  -1.6761453
  91.4441857  46.6124106  -2.0000136  90.8491789  46.8929119  -2.6953648
  91.1591553  47.1018007  -1.2283395  87.6237578  55.6688442   4.4310623
  88.5440588  55.8467041   4.6250670  87.5887162  54.7244487   4.2790323
  76.8419743  50.8627035  -6.6436102  76.5222528  50.0092344  -6.9361728
  76.2953172  51.0775613  -5.8878135  80.6199651  53.5789476  -2.9266595
  80.8385661  54.5106584  -2.9078562  81.0325425  53.2197451  -2.1411792
  85.4927516  49.1522682   6.4636154  85.3924243  50.1017039   6.3948245
  85.2749058  48.8240921   5.5912224  76.7108003  54.4829947  -4.6742980
  76.0171475  54.0683900  -5.1873026  77.4580994  54.5250483  -5.2709561
  85.3558786  52.5819821   5.2801215  84.8725868  53.3820181   5.4865104
  85.4419725  52.5927766   4.3268659  78.6244746  54.4148201  -6.7976965
  78.6015434  54.5135888  -7.7495082  78.9345383  55.2613351  -6.4759799
  81.2832124  56.4724356  -2.6830351  82.2375377  56.4408298  -2.7500419
  81.0844647  56.0114979  -1.8680125  81.8731506  55.0425472  -0.1159553
  82.6924395  55.5369550  -0.0924716  82.1468314  54.1257440  -0.1441986
  77.1266420  49.3763606   0.5832644  77.7725284  48.8662560   1.0719869
  76.9183571  50.1132287   1.1576069  89.6519812  56.4444453   6.0824784
  90.5210972  56.6185105   5.7211419  89.1726564  57.2638870   5.9600514
  81.4663911  46.5231223   4.6807658  82.3295373  46.1668027   4.8910982
  80.8929322  46.1845117   5.3683062  94.0245412  59.9311939   5.6737629
  93.6312358  59.3778138   6.3485274  94.8411552  60.2422518   6.0644147
  96.9413373  61.3469818   3.2657886  97.6823086  61.9476972   3.1862348
  97.1731296  60.6047456   2.7075929  91.9693400  63.7213629   2.6142292
  92.5965439  63.3390706   3.2279817  91.1121319  63.5027831   2.9797985
  95.2061457  63.0431535   4.2756212  95.2549612  63.9193657   3.8933982
  95.7483971  62.5008928   3.7027855  96.3321271  64.4814600   6.4636154
  96.2317998  65.4308957   6.3948245  96.1142813  64.1532839   5.5912224
  87.9660175  64.7055523   0.5832644  88.6119038  64.1954477   1.0719869
  87.7577326  65.4424205   1.1576069  92.3057666  61.8523140   4.6807658
  93.1689127  61.4959945   4.8910982  91.7323076  61.5137035   5.3683062
   3.7541892  99.6390798  72.9896712   3.0005600  99.0698196  72.8340716
   3.8889433  99.6053462  73.9367347   4.1648307  99.7966408  75.7216956
   4.8951695  99.5351696  76.2824660   3.5555252  99.0595130  75.7619024
   2.2463604  97.9374270  76.3191407   1.5196768  97.8030235  75.7107899
   1.8310891  98.2451099  77.1248126   2.1712472  97.4652323  72.4468260
   1.6112030  97.5345513  73.2199822   1.5655975  97.2893308  71.7267757
   5.1314404 102.6220239  72.2968062   5.4373280 101.7617602  72.0093978
   5.8567008 103.2137859  72.0967056   2.8368575 102.4218565  73.7197045
   3.1170329 101.7541754  74.3457471   3.6219182 102.6147661  73.2071709
   6.9970727 104.5994378  72.5865015   6.7995548 104.2909466  73.4708347
   7.6070433 105.3256017  72.7162945   2.7472107 101.5514103  70.2430634
   1.9804503 100.9972590  70.3887316   3.1582812 101.6235972  71.1044785
   3.7541893  76.6452920  59.7142019   3.0005602  76.0760318  59.5586023
   3.8889434  76.6115585  60.6612653   4.1648308  76.8028530  62.4462263
   4.8951697  76.5413818  63.0069966   3.5555254  76.0657252  62.4864331
   2.2463605  74.9436393  63.0436714   1.5196769  74.8092358  62.4353206
   1.8310892  75.2513222  63.8493432   2.1712473  74.4714446  59.1713567
   1.6112031  74.5407635  59.9445129   1.5655976  74.2955431  58.4513063
   3.7568491  91.1470960  61.8643523   4.3946901  91.0277707  61.1606863
   3.6389334  92.0951804  61.9231475   1.0477981  92.2533240  67.7591253
   1.0366622  91.8586038  66.8871757   1.2098620  91.5199312  68.3525024
   2.0044572  96.6204832  53.1016403   1.3532552  97.2058913  52.7150417
   2.7988935  97.1511027  53.1611441   3.3109760  88.8722414  58.9396731
   4.0972849  88.4541837  58.5887148   3.5748464  89.7768506  59.1078379
   3.4819837  94.3095264  53.6385388   2.8465670  94.3829891  54.3506292
   3.1517244  94.8988863  52.9604467   8.7118187  88.8097647  59.8429709
   9.4443359  88.2396864  60.0767539   7.9557543  88.4219247  60.2836215
   6.2343607  82.5219221  64.3024318   5.9026932  83.3914632  64.0785533
   5.6389221  82.2055505  64.9818348   2.7275127  94.7231767  63.7020231
   2.4275850  95.6256806  63.5936038   2.3826186  94.4563950  64.5541383
   6.1272271  87.2414307  61.3817668   5.2189148  87.1729716  61.0876429
   6.0759867  87.7186252  62.2099493   7.9933917  85.4430746  63.1595542
   7.3508297  85.7363279  62.5135336   7.4888846  85.3283666  63.9648738
   5.6474081  89.1893919  53.8481401   6.5591937  89.4221306  53.6729099
   5.1383728  89.7730963  53.2856480   3.9314848  93.6118547  67.4842694
   4.3398205  93.1700957  66.7397326   3.2092110  93.0371174  67.7376887
   4.2543663  94.1719737  61.2394982   3.6252526  94.3365451  60.5371050
   3.8669325  94.5861347  62.0105947   8.1332895  95.1074175  58.5939346
   7.4483933  95.4873077  58.0436380   8.2176744  95.7169502  59.3271294
   3.4345364  86.2095522  66.5157424   3.1906296  86.9637582  65.9791700
   3.7105294  86.5880869  67.3504671   5.3883827  92.7534134  65.1934690
   5.6000722  93.3965894  64.5169071   5.3413575  91.9196451  64.7256620
   2.9910056  85.3651955  62.0971262   2.1294535  85.6633208  62.3888000
   3.0172490  85.5822354  61.1652295   6.5029655  95.6306090  63.3657047
   7.3247098  95.2286277  63.0839729   6.4992057  95.5274324  64.3173163
  14.5935648  91.9744838  59.7142019  13.8399356  91.4052236  59.5586023
  14.7283189  91.9407503  60.6612653   1.6102752  97.4681807  69.5197080
   1.1666606  96.6818185  69.2017985   2.2719966  97.6560957  68.8540971
   3.7083990  97.7484607  67.5478481   3.6902465  98.5693488  67.0558750
   4.6303910  97.6238682  67.7728622   3.3326739  80.3688802  63.9195631
   2.9891009  81.2590444  63.8434742   3.7005702  80.1790460  63.0565216
   3.2977022  90.3597413  52.4268067   2.7823645  91.1302018  52.6656454
   3.0254330  89.6862550  53.0501128   2.4123280  82.7393457  61.8844865
   1.9088075  82.7023593  61.0712670   2.7053887  83.6486200  61.9441521
   8.2711296  93.1129768  54.3621240   7.4940739  92.7740928  53.9176402
   8.9502777  93.1182391  53.6876205   3.0863325  88.2324505  54.2527848
   2.7813461  88.5470655  55.1037991   4.0393767  88.3105925  54.2955181
   1.5309757  94.3914729  55.9020802   1.0031119  93.6567488  55.5894039
   1.0297260  95.1689405  55.6560770   6.5102603  92.5863749  61.0187848
   5.8526277  93.2763011  61.1067977   7.3143002  92.9760181  61.3621834
   5.3208062  90.9408122  59.0691790   5.8339944  91.5738114  59.5713499
   5.9709286  90.3409317  58.7035150   2.5830436 100.9192446  51.8252461
   1.9092135 101.2224143  52.4337419   2.9696258 101.7221527  51.4757918
   1.7988893  88.4157578  61.3150130   0.8811454  88.6372525  61.1571818
   2.2149036  88.4903888  60.4561838   2.5823940  89.8148993  56.4452811
   3.3295759  90.3270390  56.1359933   2.8515530  89.4933046  57.3057204
   6.0869858  95.9214123  57.1970932   5.6332185  95.0805033  57.2536123
   5.4563825  96.5575522  57.5345713   5.0302778  86.8506109  58.4271600
   4.2925534  86.3383496  58.7581842   5.2829551  86.4106491  57.6154877
   4.5302797  97.7590620  58.1320751   4.8225772  98.3195677  57.4133116
   5.0401418  98.0519181  58.8873910   5.1314405  79.6282361  59.0213369
   5.4373282  78.7679725  58.7339284   5.8567010  80.2199982  58.8212363
   2.9402056  89.0055039  66.1194833   3.2951444  89.2326512  66.9789299
   3.5874187  89.3373416  65.4972088   8.6699793  92.1273475  56.8244162
   8.5317692  92.3175071  55.8965351   8.3136012  92.8892857  57.2812213
   8.6969173  94.1950002  61.8355433   9.1305679  94.1025291  62.6838488
   9.4100754  94.1707502  61.1975449   2.4297068  97.7952096  63.3688534
   2.4834090  98.3643032  64.1366250   1.5611849  97.9653981  63.0042571
   9.5584722  94.2373702  64.3688319   9.7520612  95.1419513  64.6147594
   9.4585341  93.7781121  65.2026904   1.2121033  84.1231593  66.8678646
   0.5648948  84.8221543  66.7743123   1.9822049  84.5567737  67.2354894
   4.6199831  94.3880445  69.9429199   4.4685337  94.1590997  69.0259283
   4.6104511  95.3451046  69.9560544   1.3885167  91.9612358  64.9275466
   2.3177227  92.1123517  64.7544433   0.9676197  92.0496379  64.0724112
   1.7378714  95.3644625  60.0862841   1.4028547  95.3245395  60.9820491
   1.2382660  94.6989341  59.6133252   4.6737906  92.7100659  50.3599901
   4.0567077  91.9847487  50.2632954   4.2054394  93.4710020  50.0166975
   6.3292038  97.4199568  68.0205681   6.2704584  96.7358788  67.3536264
   6.7311556  98.1618558  67.5686307   6.3309445  95.3839152  66.2519661
   5.4436224  95.0465073  66.3746060   6.9007996  94.6522183  66.4888426
   2.9597028  85.0907003  59.3717931   3.4565728  84.3376966  59.0519001
   2.1884010  85.1271320  58.8061140  10.8126785  90.7947369  61.0136223
  10.8016662  91.6772084  60.6430156   9.9444165  90.4418920  60.8190760
   2.3209282  99.9427438  65.3739063   3.0337254 100.5774903  65.3014964
   1.8299311 100.0391304  64.5579065   4.0426809  93.8478691  56.9456355
   3.1083088  93.9680153  56.7761059   4.2203477  92.9451157  56.6816364
   7.4299360  89.6896010  57.4806389   7.8959812  90.5224001  57.4066691
   7.8806861  89.2240991  58.1851647   5.4975591  96.0339831  54.4792541
   5.7735435  95.9196426  55.3886415   4.6280090  95.6357316  54.4404714
   5.4016023  82.0576597  61.5197290   4.4879103  82.2880824  61.6879497
   5.8309124  82.1415041  62.3711322   5.1722481  90.2466489  64.0197184
   4.5193932  90.4942396  63.3649637   5.5502861  89.4330627  63.6859661
   2.1329655 100.2826182  58.1225354   2.3152050  99.4647838  58.5853107
   2.9562641 100.4993874  57.6850244   2.4671821  99.2094367  55.3840403
   2.9959587  98.6986822  54.7710565   2.7300040  98.8936897  56.2485936
   1.2210054  90.9886300  70.5063221   0.5450691  90.8880429  71.1765596
   2.0437688  90.8325514  70.9699218   4.8143712  97.1214485  70.5969492
   5.3583616  97.7344443  70.1024446   4.2330556  97.6794063  71.1136505
   3.1001225 100.2435203  61.7284519   2.9752364  99.4424943  61.2195465
   3.7580316 100.7381396  61.2398489   5.1636133  98.0444223  63.3564069
   4.2166468  97.9249574  63.2842396   5.5118906  97.1566721  63.4390331
   2.1682566  97.8396939  59.5568422   2.0207529  96.9113647  59.7375992
   2.9936060  97.8617030  59.0725497   5.7716688  98.6625498  60.6433294
   6.6963236  98.4568359  60.5057745   5.6031991  98.4141899  61.5522636
   2.1644081  85.6934777  54.5500539   2.3807695  86.5759415  54.2489367
   1.6838148  85.3020990  53.8206181   5.5612004  99.1811165  55.9995386
   5.7348882  98.6157588  55.2469238   6.0540896  99.9812060  55.8174876
   1.0367771  82.2092329  59.5806463   1.0589468  82.2731662  58.6258443
   1.4535830  81.3696837  59.7746969  11.4151395  91.9447588  57.6185686
  11.8582541  91.1954913  57.2204809  10.5377906  91.9357725  57.2359418
   6.5487177  98.4977930  53.0992284   7.2438081  99.1184622  53.3179599
   6.8910327  97.6473281  53.3744662   8.4478600  95.9477635  54.6279615
   8.9729924  96.2864908  53.9028935   8.3600952  95.0124651  54.4442749
   8.1372506  96.5810539  69.9330813   7.3468050  96.5634678  69.3935312
   7.9005861  97.1198833  70.6879849   8.2570381  93.4303005  67.2463541
   8.3068386  93.2653013  68.1879064   8.1484304  92.5630264  66.8561422
   5.5474143  89.4133933  68.5622848   6.4484006  89.2740398  68.2706846
   5.6222118  89.5788388  69.5021026   9.7588578  95.8499947  67.4905563
   9.4673386  96.2129927  68.3269024   9.1460709  95.1366955  67.3118895
  10.9584260  93.4152827  60.0108133  11.7931152  93.8542631  60.1745693
  11.0943389  92.9391480  59.1916379   8.0075766  90.9732561  65.9585621
   8.4829888  91.1660208  65.1504472   7.0841331  91.0291747  65.7129005
   2.5855983  83.0080405  64.9241455   3.1037926  83.7441432  64.5987943
   2.2311115  83.3144398  65.7588214   2.8368577  79.4280688  60.4442351
   3.1170331  78.7603877  61.0702778   3.6219184  79.6209783  59.9317015
   6.7077435  87.8498322  64.1913926   7.6594858  87.9496419  64.2126151
   6.5380886  87.0576590  64.7012011   4.7291815  84.9353905  64.3773327
   4.1341747  85.2158917  63.6819816   4.4441511  85.4247806  65.1490069
   3.8599305  98.8876832  53.1375960   4.7929978  98.8222393  53.3408835
   3.7722518  99.7233098  52.6790493   6.4887322  98.2042702  50.0979908
   6.4100953  97.8702565  50.9915665   7.3096988  98.6964470  50.0971380
   9.1865513  91.0704441  63.3056226   9.1541833  90.1320442  63.4915910
   9.7966137  91.1488478  62.5722051   1.0248844  89.9400494  49.3483430
   1.9707948  89.8106702  49.4171848   0.6463089  89.2015156  49.8252858
   9.3360001  87.8615485  63.3514509   8.8199050  87.0773941  63.1644438
  10.2199950  87.5334201  63.5161029   6.9970728  81.6056500  59.3110322
   6.7995549  81.2971588  60.1953654   7.6070434  82.3318139  59.4408252
  15.0042063  92.1320448  62.4462263  15.7345451  91.8705736  63.0069966
  14.3949008  91.3949170  62.4864331  13.0857360  90.2728311  63.0436714
  12.3590523  90.1384276  62.4353206  12.6704647  90.5805139  63.8493432
   0.9087536  93.9918240  70.8084087   1.8290546  94.1696839  71.0024134
   0.8737119  93.0474286  70.6563786   2.7544375  81.4865407  57.0606853
   3.3075414  81.9060861  57.7196876   2.9914461  80.5601155  57.1029809
   6.1323182  83.5965932  56.5685518   5.5521851  84.2550736  56.1863570
   5.8659115  82.7743277  56.1572935   4.5826748  82.9970990  58.7706838
   5.0826527  83.1087524  57.9621157   5.2262356  82.6932043  59.4107646
   4.9148060  85.7566023  55.6241866   4.0273915  86.0415673  55.4062061
   5.3302049  85.5959786  54.7769143   8.2662596  85.7812544  59.3396205
   9.0422986  86.2708996  59.6120822   7.5410730  86.2070598  59.7968075
  10.7035155  86.4940163  60.3970146  11.2979646  86.2535899  59.6863454
  10.7761738  85.7747293  61.0243682   4.0591273  95.5210697  49.7189886
   4.7627124  95.7260700  50.3347541   3.3353922  96.0887459  49.9838969
   4.8889084  91.2720559  55.8392156   4.8324285  91.7289110  54.9999788
   5.4417426  90.5111243  55.6614999   8.6993890  87.0610290  56.6642276
   8.4430824  86.6606926  57.4950483   8.0746758  87.7754084  56.5392415
  13.0106228  89.8006364  59.1713567  12.4505785  89.8699553  59.9445129
  12.4049731  89.6247348  58.4513063   5.9677971  95.9593226  51.7688346
   6.8023575  95.5274425  51.5865821   5.8062314  95.7875240  52.6965240
   5.6223863  92.4625340  53.1344685   5.5672667  92.2969611  52.1933129
   4.9969918  93.1701373  53.2906875   2.9369770  94.7674252  72.4598248
   3.8060930  94.9414904  72.0984883   2.4576522  95.5868668  72.3373977
   2.7472108  78.5576225  56.9675940   1.9804504  78.0034712  57.1132623
   3.1582813  78.6298094  57.8290092  14.5962246 106.4762878  61.8643523
  15.2340656 106.3569625  61.1606863  14.4783089 107.4243722  61.9231475
  11.4051952 106.4290306  61.8005047  11.0670464 106.3131370  60.9125582
  12.2741720 106.0281471  61.7806053   9.1060232 105.1978553  51.1321987
   9.3585752 104.6760074  50.3705450   8.1684791 105.0344699  51.2348671
  14.1503514 104.2014331  58.9396731  14.9366604 103.7833755  58.5887148
  14.4142219 105.1060424  59.1078379  19.5511942 104.1389565  59.8429709
  20.2837114 103.5688781  60.0767539  18.7951297 103.7511165  60.2836215
  11.1688061 106.5616806  57.0393052  10.8046269 106.0347427  57.7505973
  12.0255177 106.1715275  56.8659537  17.0737362  97.8511139  64.3024318
  16.7420687  98.7206550  64.0785533  16.4782975  97.5347423  64.9818348
  10.8093548 101.5906706  52.0354400  10.9767951 102.4586942  52.4024871
  10.6190717 101.7533988  51.1115689  16.9666025 102.5706225  61.3817668
  16.0582903 102.5021633  61.0876429  16.9153621 103.0478170  62.2099493
  10.7882769 104.0464363  53.0201067  10.6682394 104.4921414  53.8586547
  10.0935358 104.3949681  52.4614605  11.0406891 103.9895871  69.3252565
  10.2640225 104.5489791  69.3155430  11.6797454 104.4752654  69.8467435
  18.8327672 100.7722663  63.1595542  18.1902052 101.0655196  62.5135336
  18.3282600 100.6575584  63.9648738  16.4867835 104.5185837  53.8481401
  17.3985691 104.7513223  53.6729099  15.9777482 105.1022881  53.2856480
  11.1239673 103.8783071  64.8576251  11.9700868 104.3022485  65.0010900
  11.0638311 103.2216695  65.5514814  14.2739118 101.5387439  66.5157424
  14.0300050 102.2929500  65.9791700  14.5499049 101.9172787  67.3504671
  16.2277581 108.0826052  65.1934690  16.4394476 108.7257812  64.5169071
  16.1807329 107.2488368  64.7256620  13.8303810 100.6943873  62.0971262
  12.9688289 100.9925126  62.3888000  13.8566245 100.9114271  61.1652295
   9.5834266 105.3609215  55.3134633  10.2858309 105.8130259  55.7808559
   9.2514894 104.7193034  55.9414526   8.0314627 103.9520972  69.6885842
   7.4013288 104.6337253  69.9221239   7.9250715 103.8404054  68.7438980
   5.2774345 103.9837347  57.5735243   4.4805508 104.0956042  58.0918739
   5.0499937 104.3224000  56.7076134  25.4329402 107.3036756  59.7142019
  24.6793111 106.7344154  59.5586023  25.5676943 107.2699420  60.6612653
   7.3095370  98.2541738  72.0511093   6.9162315  97.7007936  72.7258737
   8.1261510  98.5652316  72.4417611  10.2263331  99.6699617  69.6431350
  10.9673044 100.2706770  69.5635812  10.4581254  98.9277255  69.0849392
  14.1720494  95.6980720  63.9195631  13.8284763  96.5882362  63.8434742
  14.5399456  95.5082378  63.0565216  14.1370776 105.6889331  52.4268067
  13.6217400 106.4593936  52.6656454  13.8648085 105.0154467  53.0501128
  11.7217888 100.5339032  57.4853305  10.8659484 100.1445882  57.3058944
  12.1344839 100.6130993  56.6253090  13.2517034  98.0685375  61.8844865
  12.7481830  98.0315510  61.0712670  13.5447641  98.9778118  61.9441521
   9.4959920  98.1524105  60.8911046  10.3612917  97.9566914  60.5316936
   9.5637429  97.9234457  61.8180403  19.1105051 108.4421686  54.3621240
  18.3334493 108.1032845  53.9176402  19.7896532 108.4474309  53.6876205
  13.9257080 103.5616423  54.2527848  13.6207215 103.8762572  55.1037991
  14.8787522 103.6397843  54.2955181  17.3496358 107.9155667  61.0187848
  16.6920032 108.6054928  61.1067977  18.1536757 108.3052099  61.3621834
   7.1022239 100.3826313  58.2627413   7.6765991 100.1601494  57.5300606
   7.6893222 100.4515007  59.0156015  16.1601816 106.2700040  59.0691790
  16.6733698 106.9030031  59.5713499  16.8103040 105.6701235  58.7035150
   7.4291826 102.4130774  52.2823298   6.5929138 102.7505460  52.6032573
   7.2896596 102.2779754  51.3450435   9.4044907  97.2567562  56.9902483
   8.7509319  96.9416579  56.3659097   9.3625381  96.6343302  57.7162306
  12.6382647 103.7449495  61.3150130  11.7205209 103.9664442  61.1571818
  13.0542791 103.8195806  60.4561838  13.4217695 105.1440911  56.4452811
  14.1689514 105.6562308  56.1359933  13.6909284 104.8224964  57.3057204
  15.8696532 102.1798027  58.4271600  15.1319289 101.6675413  58.7581842
  16.1223306 101.7398409  57.6154877  15.9708159  94.9574279  59.0213369
  16.2767036  94.0971643  58.7339284  16.6960764  95.5491899  58.8212363
  10.2429239 105.2528072  59.5289560  10.2977849 104.3001909  59.4532037
   9.4320441 105.4087511  60.0130859   8.1821599 103.8705132  57.2879939
   7.3689465 104.1699302  57.6945131   8.6780593 103.4760821  58.0054421
  13.7795811 104.3346956  66.1194833  14.1345198 104.5618430  66.9789299
  14.4267942 104.6665333  65.4972088  19.5093548 107.4565392  56.8244162
  19.3711446 107.6466988  55.8965351  19.1529767 108.2184775  57.2812213
   7.6735674 101.4423487  62.9041174   8.3135053 101.3012247  62.2064137
   6.8413204 101.1558001  62.5279776  19.5362927 109.5241919  61.8355433
  19.9699434 109.4317208  62.6838488  20.2494508 109.4999420  61.1975449
   4.6764290 101.4123812  57.6814161   4.9371108 102.3269146  57.5723321
   5.4981463 100.9448255  57.8310774   6.1489216 102.8261570  64.8512985
   6.8212269 102.6178932  64.2025634   5.3219002 102.6283656  64.4118218
  12.0514788  99.4523511  66.8678646  11.4042703 100.1513460  66.7743123
  12.8215803  99.8859654  67.2354894   9.1799014 105.8124132  65.0999102
   9.8898632 105.1717324  65.0585721   9.1368322 106.0637027  66.0225283
   7.8927947 102.7989350  66.9194742   7.3565304 102.3480088  67.5716338
   7.3044656 102.9335259  66.1765206   7.3030206 102.2578001  49.4821205
   6.4259673 102.1366802  49.1183452   7.7787960 101.4664080  49.2300094
   3.6267069 101.9345358  64.0047736   3.5425257 101.3271027  63.2698146
   2.8049775 102.4254376  64.0057232  13.7990783 100.4198921  59.3717931
  14.2959482  99.6668883  59.0519001  13.0277764 100.4563238  58.8061140
  21.6520540 106.1239287  61.0136223  21.6410416 107.0064002  60.6430156
  20.7837919 105.7710837  60.8190760  10.3825751 102.5616304  59.0989616
  10.0123539 102.0087344  59.7870521  10.8784844 101.9574438  58.5464616
  18.2693115 105.0187928  57.4806389  18.7353567 105.8515919  57.4066691
  18.7200615 104.5532909  58.1851647  16.2409777  97.3868515  61.5197290
  15.3272857  97.6172741  61.6879497  16.6702879  97.4706959  62.3711322
  16.0116236 105.5758406  64.0197184  15.3587686 105.8234314  63.3649637
  16.3896616 104.7622545  63.6859661  12.0603809 106.3178218  70.5063221
  11.3844446 106.2172347  71.1765596  12.8831443 106.1617431  70.9699218
   5.7791085  99.9720295  65.3442722   5.8432411 100.8335126  64.9320120
   5.7158205  99.3594296  64.6115080   5.2543358 102.0443427  68.9915756
   5.8815396 101.6620505  69.6053280   4.3971276 101.8257629  69.3571449
   5.5603147 101.9275853  60.9061660   4.8389733 102.5411821  60.7669133
   6.3496403 102.4633618  60.8278305   8.3629461  99.2630280  67.1802311
   8.8863863  99.5092576  67.9428621   8.1441794 100.0950314  66.7605449
   3.7596742 101.5333954  55.0473436   3.4309448 100.6531333  54.8648542
   4.1136113 101.4781623  55.9349825   6.8738565 101.8206924  55.4148914
   7.2134638 102.3492845  54.6927522   7.3210685 102.1587330  56.1907480
   9.5682006 100.2043975  64.8651982   9.2278826  99.4051788  65.2672662
   8.8621012 100.5045685  64.2928815  10.2198478  97.2893287  63.3179305
  11.0424547  96.8153765  63.1958195  10.4636541  98.0683771  63.8177991
   8.8606712 100.3181546  53.6142207   9.5815075 100.6962798  53.1105923
   8.2372016 101.0370422  53.7177184  13.0037835 101.0226694  54.5500539
  13.2201449 101.9051332  54.2489367  12.5231902 100.6312908  53.8206181
   7.7437056 103.9812408  61.1271283   7.5981637 104.2952711  62.0195565
   7.2662260 104.5997308  60.5742182   9.6033439 100.9714956  61.1752173
   9.5895008 100.0756049  60.8384471  10.3205867 100.9785619  61.8090459
  11.4559570 101.4052296  63.2205300  11.1977348 102.3269367  63.2189631
  10.9244610 101.0082730  63.9105765   9.0070335  99.8529336  56.4439743
   9.1286246  98.9245982  56.6430631   8.7172378  99.8668022  55.5318059
  11.8761526  97.5384246  59.5806463  11.8983222  97.6023579  58.6258443
  12.2929585  96.6988755  59.7746969  22.2545150 107.2739506  57.6185686
  22.6976296 106.5246831  57.2204809  21.3771660 107.2649642  57.2359418
   8.4911415 101.3661333  70.6529676   8.5399570 102.2423456  70.2707445
   9.0333929 100.8238726  70.0801319  19.0964136 108.7594923  67.2463541
  19.1462140 108.5944930  68.1879064  18.9878059 107.8922182  66.8561422
  16.3867898 104.7425851  68.5622848  17.2877761 104.6032316  68.2706846
  16.4615872 104.9080306  69.5021026  10.7210703 102.1192706  67.4076034
   9.8514013 102.4126272  67.1358623  10.9570184 102.7033151  68.1283298
  21.7978015 108.7444744  60.0108133  22.6324906 109.1834548  60.1745693
  21.9337143 108.2683397  59.1916379  18.8469521 106.3024479  65.9585621
  19.3223642 106.4952125  65.1504472  17.9235086 106.3583665  65.7129005
  13.4249737  98.3372323  64.9241455  13.9431681  99.0733350  64.5987943
  13.0704870  98.6436316  65.7588214   5.0048675 103.1977004  53.0402861
   4.3117920 103.2721359  52.3842897   4.7600427 102.4337347  53.5624378
  13.6762331  94.7572605  60.4442351  13.9564085  94.0895794  61.0702778
  14.4612938  94.9501701  59.9317015  17.5471190 103.1790239  64.1913926
  18.4988612 103.2788337  64.2126151  17.3774640 102.3868508  64.7012011
  15.5685569 100.2645822  64.3773327  14.9735501 100.5450835  63.6819816
  15.2835266 100.7539723  65.1490069  20.0259267 106.3996359  63.3056226
  19.9935587 105.4612360  63.4915910  20.6359891 106.4780396  62.5722051
  11.8642598 105.2692412  49.3483430  12.8101703 105.1398620  49.4171848
  11.4856843 104.5307074  49.8252858  20.1753756 103.1907402  63.3514509
  19.6592804 102.4065859  63.1644438  21.0593704 102.8626119  63.5161029
  17.8364483  96.9348418  59.3110322  17.6389304  96.6263506  60.1953654
  18.4464188  97.6610057  59.4408252  25.8435817 107.4612366  62.4462263
  26.5739206 107.1997654  63.0069966  25.2342763 106.7241088  62.4864331
  23.9251114 105.6020228  63.0436714  23.1984278 105.4676193  62.4353206
  23.5098401 105.9097057  63.8493432  10.0485515 103.1942388  49.2838315
   9.1416971 102.8975501  49.3601029  10.3261496 102.8972206  48.4172602
  11.6647581  97.7379278  55.4382557  10.8548309  97.3926363  55.8137803
  12.3531998  97.4286822  56.0270168  13.5938129  96.8157325  57.0606853
  14.1469168  97.2352778  57.7196876  13.8308216  95.8893073  57.1029809
   9.6171229 102.8044398  72.8409617   9.5167956 103.7538755  72.7721708
   9.3992771 102.4762637  71.9685687   8.8184300 100.0529323  49.4250295
   9.6803464 100.3784222  49.6846112   9.0034644  99.2660819  48.9123360
  16.9716936  98.9257850  56.5685518  16.3915606  99.5842654  56.1863570
  16.7052869  98.1035195  56.1572935  15.4220503  98.3262908  58.7706838
  15.9220281  98.4379442  57.9621157  16.0656111  98.0223960  59.4107646
  15.7541814 101.0857940  55.6241866  14.8667670 101.3707591  55.4062061
  16.1695804 100.9251704  54.7769143  19.1056351 101.1104461  59.3396205
  19.8816741 101.6000914  59.6120822  18.3804485 101.5362515  59.7968075
  21.5428909 101.8232081  60.3970146  22.1373400 101.5827816  59.6863454
  21.6155493 101.1039211  61.0243682  15.7282838 106.6012476  55.8392156
  15.6718040 107.0581028  54.9999788  16.2811181 105.8403161  55.6614999
  19.5387644 102.3902208  56.6642276  19.2824578 101.9898844  57.4950483
  18.9140512 103.1046002  56.5392415  23.8499982 105.1298281  59.1713567
  23.2899540 105.1991471  59.9445129  23.2443485 104.9539266  58.4513063
  16.4617618 107.7917257  53.1344685  16.4066421 107.6261529  52.1933129
  15.8363673 108.4993290  53.2906875   9.7713743  97.2925366  52.7130004
   9.7592413  98.2367206  52.8698274  10.6637165  97.1095512  52.4189465
  13.5865862  93.8868143  56.9675940  12.8198258  93.3326630  57.1132623
  13.9976567  93.9590012  57.8290092   5.5907624 100.1752939  71.0581122
   6.4539085  99.8189744  71.2684446   5.0173034  99.8366834  71.7456526
  26.8101914 110.2866197  59.0213369  27.1160791 109.4263560  58.7339284
  27.5354519 110.8783817  58.8212363  24.5156086 110.0864523  60.4442351
  24.7957839 109.4187712  61.0702778  25.3006693 110.2793618  59.9317015
  28.6758237 112.2640336  59.3110322  28.4783058 111.9555424  60.1953654
  29.2857943 112.9901974  59.4408252  24.4259617 109.2160061  56.9675940
  23.6592013 108.6618548  57.1132623  24.8370322 109.2881930  57.8290092
   3.7541894  53.6515043  46.4387325   3.0005603  53.0822441  46.2831330
   3.8889436  53.6177708  47.3857960   4.1648309  53.8090653  49.1707570
   4.8951698  53.5475941  49.7315273   3.5555255  53.0719375  49.2109638
   2.2463607  51.9498516  49.7682021   1.5196770  51.8154480  49.1598512
   1.8310893  52.2575344  50.5738739   2.1712474  51.4776569  45.8958874
   1.6112032  51.5469758  46.6690436   1.5655978  51.3017553  45.1758370
   3.7568493  68.1533083  48.5888829   4.3946903  68.0339830  47.8852169
   3.6389336  69.1013926  48.6476781   1.0477982  69.2595362  54.4836559
   1.0366623  68.8648161  53.6117063   1.2098621  68.5261435  55.0770331
   2.0044573  73.6266955  39.8261710   1.3532553  74.2121035  39.4395724
   2.7988936  74.1573150  39.8856747   3.3109761  65.8784536  45.6642037
   4.0972850  65.4603960  45.3132454   3.5748466  66.7830629  45.8323686
   3.4819839  71.3157387  40.3630694   2.8465672  71.3892013  41.0751599
   3.1517245  71.9050986  39.6849773   8.7118188  65.8159770  46.5675016
   9.4443360  65.2458986  46.8012845   7.9557544  65.4281370  47.0081521
   6.2343609  59.5281344  51.0269624   5.9026933  60.3976755  50.8030839
   5.6389222  59.2117628  51.7063655   2.7275128  71.7293890  50.4265537
   2.4275851  72.6318928  50.3181344   2.3826188  71.4626073  51.2786690
   6.1272272  64.2476430  48.1062974   5.2189149  64.1791838  47.8121735
   6.0759868  64.7248375  48.9344800   7.9933918  62.4492868  49.8840848
   7.3508299  62.7425401  49.2380643   7.4888847  62.3345789  50.6894045
   5.6474082  66.1956041  40.5726708   6.5591938  66.4283428  40.3974405
   5.1383729  66.7793086  40.0101786   3.9314850  70.6180669  54.2088000
   4.3398206  70.1763080  53.4642633   3.2092111  70.0433297  54.4622193
   4.2543664  71.1781860  47.9640289   3.6252527  71.3427574  47.2616357
   3.8669326  71.5923469  48.7351253   8.1332896  72.1136298  45.3184653
   7.4483934  72.4935199  44.7681686   8.2176746  72.7231624  46.0516601
   3.4345365  63.2157644  53.2402731   3.1906297  63.9699705  52.7037007
   3.7105296  63.5942992  54.0749978   5.3883828  69.7596257  51.9179996
   5.6000723  70.4028017  51.2414377   5.3413576  68.9258573  51.4501926
   2.9910057  62.3714077  48.8216569   2.1294536  62.6695331  49.1133306
   3.0172492  62.5884476  47.8897601   6.5029656  72.6368212  50.0902354
   7.3247100  72.2348399  49.8085035   6.4992059  72.5336446  51.0418470
  14.5935649  68.9806961  46.4387325  13.8399357  68.4114359  46.2831330
  14.7283190  68.9469625  47.3857960   1.6102753  74.4743929  56.2442387
   1.1666608  73.6880308  55.9263291   2.2719967  74.6623080  55.5786277
   3.7083991  74.7546729  54.2723788   3.6902467  75.5755610  53.7804057
   4.6303911  74.6300805  54.4973929   3.3326741  57.3750925  50.6440938
   2.9891010  58.2652567  50.5680049   3.7005703  57.1852583  49.7810523
   3.2977023  67.3659536  39.1513373   2.7823647  68.1364141  39.3901761
   3.0254332  66.6924672  39.7746435   2.4123281  59.7455580  48.6090171
   1.9088076  59.7085715  47.7957977   2.7053888  60.6548323  48.6686828
   8.2711297  70.1191891  41.0866547   7.4940740  69.7803050  40.6421709
   8.9502778  70.1244514  40.4121512   3.0863326  65.2386628  40.9773154
   2.7813462  65.5532777  41.8283298   4.0393769  65.3168048  41.0200487
   1.5309758  71.3976851  42.6266108   1.0031120  70.6629611  42.3139346
   1.0297261  72.1751528  42.3806077   6.5102604  69.5925872  47.7433155
   5.8526279  70.2825133  47.8313283   7.3143003  69.9822304  48.0867141
   5.3208063  67.9470245  45.7937096   5.8339945  68.5800236  46.2958806
   5.9709287  67.3471440  45.4280456   2.5830437  77.9254569  38.5497768
   1.9092136  78.2286266  39.1582725   2.9696259  78.7283649  38.2003225
   1.7988894  65.4219700  48.0395437   0.8811455  65.6434647  47.8817125
   2.2149038  65.4966011  47.1807144   2.5823942  66.8211116  43.1698117
   3.3295761  67.3332513  42.8605239   2.8515531  66.4995169  44.0302511
   6.0869859  72.9276246  43.9216239   5.6332186  72.0867156  43.9781429
   5.4563826  73.5637644  44.2591019   5.0302779  63.8568232  45.1516906
   4.2925536  63.3445618  45.4827149   5.2829552  63.4168614  44.3400183
   4.5302799  74.7652743  44.8566057   4.8225773  75.3257800  44.1378423
   5.0401419  75.0581304  45.6119216   5.1314406  56.6344484  45.7458676
   5.4373283  55.7741847  45.4584591   5.8567011  57.2262104  45.5457670
   2.9402058  66.0117161  52.8440140   3.2951445  66.2388634  53.7034605
   3.5874189  66.3435538  52.2217395   8.6699794  69.1335597  43.5489469
   8.5317693  69.3237193  42.6210658   8.3136013  69.8954980  44.0057520
   8.6969174  71.2012124  48.5600740   9.1305681  71.1087413  49.4083794
   9.4100755  71.1769625  47.9220756   2.4297069  74.8014218  50.0933841
   2.4834091  75.3705155  50.8611557   1.5611850  74.9716103  49.7287878
   9.5584724  71.2435825  51.0933626   9.7520614  72.1481635  51.3392900
   9.4585342  70.7843244  51.9272211   1.2121034  61.1293715  53.5923953
   0.5648949  61.8283665  53.4988429   1.9822050  61.5629859  53.9600201
   4.6199832  71.3942568  56.6674506   4.4685339  71.1653119  55.7504590
   4.6104512  72.3513169  56.6805851   1.3885169  68.9674480  51.6520773
   2.3177229  69.1185640  51.4789740   0.9676199  69.0558501  50.7969419
   1.7378716  72.3706747  46.8108148   1.4028548  72.3307517  47.7065798
   1.2382661  71.7051463  46.3378558   4.6737907  69.7162782  37.0845208
   4.0567078  68.9909610  36.9878260   4.2054396  70.4772142  36.7412282
   6.3292039  74.4261690  54.7450988   6.2704585  73.7420910  54.0781571
   6.7311557  75.1680680  54.2931614   6.3309446  72.3901274  52.9764968
   5.4436225  72.0527196  53.0991367   6.9007997  71.6584305  53.2133733
   2.9597029  62.0969126  46.0963238   3.4565729  61.3439088  45.7764308
   2.1884011  62.1333443  45.5306447  10.8126787  67.8009491  47.7381529
  10.8016663  68.6834207  47.3675462   9.9444166  67.4481042  47.5436066
   2.3209283  76.9489560  52.0984370   3.0337255  77.5837025  52.0260271
   1.8299312  77.0453426  51.2824371   4.0426810  70.8540813  43.6701661
   3.1083089  70.9742276  43.5006366   4.2203479  69.9513280  43.4061671
   7.4299361  66.6958132  44.2051695   7.8959814  67.5286124  44.1311998
   7.8806862  66.2303114  44.9096954   5.4975593  73.0401954  41.2037847
   5.7735436  72.9258548  42.1131721   4.6280091  72.6419439  41.1650020
   5.4016024  59.0638719  48.2442597   4.4879104  59.2942946  48.4124804
   5.8309126  59.1477164  49.0956629   5.1722483  67.2528611  50.7442491
   4.5193933  67.5004519  50.0894943   5.5502863  66.4392750  50.4104968
   2.1329657  77.2888305  44.8470661   2.3152051  76.4709961  45.3098413
   2.9562643  77.5055997  44.4095551   2.4671822  76.2156490  42.1085709
   2.9959588  75.7048944  41.4955872   2.7300042  75.8999020  42.9731242
   1.2210056  67.9948422  57.2308528   0.5450693  67.8942552  57.9010903
   2.0437690  67.8387636  57.6944525   4.8143713  74.1276607  57.3214798
   5.3583617  74.7406566  56.8269753   4.2330558  74.6856186  57.8381811
   3.1001226  77.2497325  48.4529826   2.9752365  76.4487065  47.9440771
   3.7580317  77.7443519  47.9643796   5.1636134  75.0506346  50.0809376
   4.2166470  74.9311697  50.0087703   5.5118907  74.1628844  50.1635637
   2.1682568  74.8459062  46.2813728   2.0207530  73.9175769  46.4621298
   2.9936061  74.8679152  45.7970803   5.7716689  75.6687620  47.3678601
   6.6963237  75.4630482  47.2303052   5.6031993  75.4204022  48.2767942
   2.1644082  62.6996899  41.2745845   2.3807696  63.5821537  40.9734674
   1.6838149  62.3083113  40.5451487   5.5612006  76.1873288  42.7240692
   5.7348883  75.6219710  41.9714545   6.0540897  76.9874183  42.5420182
   1.0367772  59.2154451  46.3051770   1.0589469  59.2793784  45.3503749
   1.4535831  58.3758960  46.4992276  11.4151397  68.9509711  44.3430992
  11.8582543  68.2017036  43.9450115  10.5377907  68.9419847  43.9604724
   6.5487178  75.5040052  39.8237591   7.2438083  76.1246745  40.0424905
   6.8910328  74.6535404  40.0989969   8.4478601  72.9539758  41.3524921
   8.9729925  73.2927031  40.6274242   8.3600954  72.0186773  41.1688056
   8.1372507  73.5872662  56.6576119   7.3468051  73.5696800  56.1180619
   7.9005862  74.1260955  57.4125156   8.2570382  70.4365128  53.9708848
   8.3068387  70.2715135  54.9124371   8.1484306  69.5692387  53.5806729
   5.5474145  66.4196056  55.2868155   6.4484007  66.2802521  54.9952152
   5.6222119  66.5850511  56.2266332   9.7588579  72.8562069  54.2150870
   9.4673387  73.2192050  55.0514330   9.1460710  72.1429078  54.0364202
  10.9584261  70.4214949  46.7353440  11.7931153  70.8604753  46.8991000
  11.0943390  69.9453602  45.9161686   8.0075767  67.9794684  52.6830928
   8.4829889  68.1722330  51.8749779   7.0841333  68.0353870  52.4374311
   2.5855984  60.0142528  51.6486761   3.1037928  60.7503555  51.3233250
   2.2311117  60.3206521  52.4833521   2.8368578  56.4342810  47.1687658
   3.1170332  55.7665999  47.7948085   3.6219185  56.6271906  46.6562322
   6.7077436  64.8560444  50.9159233   7.6594859  64.9558542  50.9371457
   6.5380887  64.0638713  51.4257317   4.7291816  61.9416027  51.1018634
   4.1341748  62.2221040  50.4065123   4.4441513  62.4309928  51.8735375
   3.8599306  75.8938954  39.8621267   4.7929979  75.8284516  40.0654142
   3.7722519  76.7295221  39.4035799   6.4887323  75.2104824  36.8225214
   6.4100954  74.8764688  37.7160972   7.3096990  75.7026592  36.8216686
   9.1865514  68.0766564  50.0301533   9.1541834  67.1382565  50.2161217
   9.7966138  68.1550601  49.2967358   1.0248845  66.9462617  36.0728737
   1.9707950  66.8168825  36.1417155   0.6463090  66.2077279  36.5498165
   9.3360003  64.8677607  50.0759816   8.8199051  64.0836064  49.8889745
  10.2199951  64.5396324  50.2406335   6.9970730  58.6118623  46.0355629
   6.7995551  58.3033711  46.9198961   7.6070435  59.3380262  46.1653558
  15.0042064  69.1382571  49.1707570  15.7345452  68.8767859  49.7315273
  14.3949009  68.4011293  49.2109638  13.0857361  67.2790433  49.7682021
  12.3590525  67.1446398  49.1598512  12.6704648  67.5867262  50.5738739
   0.9087538  70.9980363  57.5329394   1.8290547  71.1758962  57.7269440
   0.8737121  70.0536408  57.3809093   2.7544376  58.4927530  43.7852160
   3.3075415  58.9122983  44.4442183   2.9914463  57.5663278  43.8275116
   6.1323183  60.6028055  43.2930824   5.5521852  61.2612859  42.9108877
   5.8659116  59.7805399  42.8818242   4.5826750  60.0033113  45.4952145
   5.0826528  60.1149647  44.6866463   5.2262358  59.6994165  46.1352953
   4.9148061  62.7628145  42.3487173   4.0273916  63.0477796  42.1307367
   5.3302050  62.6021909  41.5014449   8.2662597  62.7874666  46.0641512
   9.0422988  63.2771119  46.3366129   7.5410732  63.2132720  46.5213381
  10.7035156  63.5002285  47.1215452  11.2979647  63.2598021  46.4108761
  10.7761740  62.7809416  47.7488989   4.0591275  72.5272820  36.4435192
   4.7627125  72.7322822  37.0592848   3.3353923  73.0949582  36.7084276
   4.8889085  68.2782681  42.5637463   4.8324286  68.7351233  41.7245095
   5.4417427  67.5173366  42.3860305   8.6993891  64.0672413  43.3887582
   8.4430825  63.6669049  44.2195790   8.0746759  64.7816207  43.2637721
  13.0106229  66.8068486  45.8958874  12.4505787  66.8761676  46.6690436
  12.4049732  66.6309471  45.1758370   5.9677972  72.9655349  38.4933653
   6.8023576  72.5336548  38.3111127   5.8062315  72.7937363  39.4210547
   5.6223864  69.4687462  39.8589992   5.5672668  69.3031734  38.9178436
   4.9969920  70.1763495  40.0152182   2.9369771  71.7736374  59.1843555
   3.8060931  71.9477027  58.8230190   2.4576523  72.5930791  59.0619284
   2.7472109  55.5638348  43.6921247   1.9804505  55.0096835  43.8377929
   3.1582814  55.6360217  44.5535399  14.5962247  83.4825000  48.5888829
  15.2340657  83.3631748  47.8852169  14.4783090  84.4305844  48.6476781
  11.4051954  83.4352428  48.5250354  11.0670465  83.3193493  47.6370889
  12.2741722  83.0343593  48.5051360   7.2638769  85.2887905  44.5147245
   6.7003634  85.1977842  43.7463533   7.1491164  84.4687809  44.9949737
  11.8871737  84.5887280  54.4836559  11.8760377  84.1940078  53.6117063
  12.0492376  83.8553353  55.0770331   4.8103201  86.7839096  47.3531465
   5.6024493  86.4429921  46.9377765   5.0499851  86.8934071  48.2733619
  12.8438328  88.9558872  39.8261710  12.1926308  89.5412953  39.4395724
  13.6382691  89.4865067  39.8856747   6.7693955  86.0448010  40.2248844
   7.5424831  85.4976997  40.0861720   7.1219354  86.9092259  40.4363306
   8.6078998  87.3724392  53.4315743   8.3168864  88.2770023  53.3162410
   9.2435982  87.4140919  54.1459813   9.5335204  84.7501240  50.0217103
  10.1298777  84.5257263  49.3074066   9.5910176  84.0085986  50.6242551
   9.1060233  82.2040676  37.8567294   9.3585754  81.6822197  37.0950757
   8.1684792  82.0406821  37.9593978  14.1503516  81.2076454  45.6642037
  14.9366605  80.7895877  45.3132454  14.4142220  82.1122546  45.8323686
  14.3213593  86.6449304  40.3630694  13.6859426  86.7183931  41.0751599
  13.9910999  87.2342903  39.6849773  19.5511943  81.1451687  46.5675016
  20.2837115  80.5750904  46.8012845  18.7951299  80.7573288  47.0081521
   8.8256522  84.1068782  40.0591669   8.7092780  83.4313685  40.7272753
   8.9358782  83.6201156  39.2423822  11.1688063  83.5678929  43.7638358
  10.8046270  83.0409550  44.4751280  12.0255178  83.1777398  43.5904844
  17.0737363  74.8573261  51.0269624  16.7420688  75.7268672  50.8030839
  16.4782977  74.5409545  51.7063655  10.8093550  78.5968828  38.7599707
  10.9767952  79.4649065  39.1270178  10.6190719  78.7596110  37.8360996
  13.5668883  87.0585807  50.4265537  13.2669606  87.9610846  50.3181344
  13.2219942  86.7917991  51.2786690   7.0181364  83.5099604  46.4602242
   6.0931861  83.3775818  46.6679933   7.2665777  84.2893823  46.9572184
  16.9666027  79.5768348  48.1062974  16.0582904  79.5083756  47.8121735
  16.9153622  80.0540292  48.9344800  10.7882770  81.0526486  39.7446374
  10.6682396  81.4983537  40.5831854  10.0935359  81.4011804  39.1859912
   4.3790175  83.1532878  47.2946031   4.5082556  83.4067357  48.2085442
   3.6987627  83.7460586  46.9750686   8.5489663  93.8230128  43.3936505
   8.4713692  94.7737953  43.4724985   7.9451306  93.4776000  44.0511431
  11.0406892  80.9957993  56.0497872  10.2640226  81.5551913  56.0400736
  11.6797455  81.4814776  56.5712742  18.8327673  77.7784786  49.8840848
  18.1902053  78.0717319  49.2380643  18.3282601  77.6637706  50.6894045
  16.4867837  81.5247959  40.5726708  17.3985693  81.7575346  40.3974405
  15.9777484  82.1085003  40.0101786   9.2953265  83.8043446  55.6115839
  10.0367949  84.3428490  55.3350662   8.5890250  84.4309735  55.7687391
  14.7708604  85.9472587  54.2088000  15.1791960  85.5054997  53.4642633
  14.0485866  85.3725214  54.4622193  11.1239674  80.8845194  51.5821557
  11.9700869  81.3084607  51.7256206  11.0638312  80.2278818  52.2760120
  15.0937419  86.5073778  47.9640289  14.4646281  86.6719492  47.2616357
  14.7063081  86.9215387  48.7351253  18.9726651  87.4428215  45.3184653
  18.2877689  87.8227117  44.7681686  19.0570500  88.0523542  46.0516601
  14.2739120  78.5449562  53.2402731  14.0300051  79.2991623  52.7037007
  14.5499050  78.9234910  54.0749978  16.2277582  85.0888174  51.9179996
  16.4394478  85.7319934  51.2414377  16.1807331  84.2550491  51.4501926
  13.8303811  77.7005995  48.8216569  12.9688290  77.9987249  49.1133306
  13.8566246  77.9176394  47.8897601  10.6465381  86.2448186  45.2290374
  11.1103726  86.5235889  44.4394997  10.3822179  85.3431630  45.0463465
   7.5389462  85.7919667  48.1670137   8.1090819  86.2206936  47.5287622
   8.1297574  85.5102252  48.8654323   9.5834267  82.3671338  42.0379939
  10.2858310  82.8192382  42.5053866   9.2514895  81.7255157  42.6659832
   8.0314628  80.9583095  56.4131149   7.4013289  81.6399376  56.6466546
   7.9250716  80.8466176  55.4684287   3.3259601  80.6254891  47.3397073
   2.5358655  80.8812419  46.8637184   3.8170848  81.4403229  47.4449113
  17.3423410  87.9660130  50.0902354  18.1640854  87.5640317  49.8085035
  17.3385813  87.8628364  51.0418470   5.2774346  80.9899470  44.2980550
   4.4805509  81.1018164  44.8164045   5.0499938  81.3286122  43.4321440
  11.1080014  87.5144173  52.2463064  11.1724446  87.9764580  53.0821236
  10.3990938  86.8841538  52.3745374   1.6097304  80.8785381  49.7712064
   1.8605342  81.7632391  50.0369640   2.1456852  80.6989983  48.9987156
  25.4329403  84.3098878  46.4387325  24.6793112  83.7406276  46.2831330
  25.5676945  84.2761543  47.3857960  10.8228031  89.1812281  42.1142045
  10.6873706  90.0263816  42.5426892  11.3637844  89.3831558  41.3507978
   7.3095371  75.2603861  58.7756400   6.9162317  74.7070059  59.4504044
   8.1261511  75.5714439  59.1662917   4.2757429  86.6987719  42.6869970
   4.7881949  87.4930969  42.8375534   4.9280142  86.0014009  42.6203571
   6.0852314  89.8153475  44.7692723   6.2618942  90.7371440  44.5813707
   6.8809147  89.5011894  45.1987103  10.2263332  76.6761740  56.3676656
  10.9673045  77.2768893  56.2881119  10.4581255  75.9339377  55.8094699
   5.3704670  81.8618107  54.6454886   5.2558185  80.9603364  54.9461985
   4.5149188  82.1081804  54.2939703  12.4496508  89.8035847  56.2442387
  12.0060362  89.0172226  55.9263291  13.1113721  89.9914998  55.5786277
   7.2083629  91.3331649  50.7703065   7.7591054  91.2048712  49.9980059
   6.3695105  91.6326538  50.4197958  14.5477746  90.0838647  54.2723788
  14.5296221  90.9047528  53.7804057  15.4697666  89.9592722  54.4973929
  11.0050800  87.5982777  55.1147296  11.5379137  86.8371065  54.8846604
  10.4764881  87.3056428  55.8571451  14.1720495  72.7042843  50.6440938
  13.8284764  73.5944484  50.5680049  14.5399458  72.5144500  49.7810523
   2.2406346  85.0276373  43.4629540   3.0781568  85.4373381  43.2463248
   2.4184613  84.0875815  43.4329734  14.1370778  82.6951454  39.1513373
  13.6217401  83.4656058  39.3901761  13.8648086  82.0216590  39.7746435
  11.7217889  77.5401154  44.2098612  10.8659485  77.1508005  44.0304250
  12.1344841  77.6193115  43.3498397  13.2517035  75.0747498  48.6090171
  12.7481831  75.0377633  47.7957977  13.5447642  75.9840240  48.6686828
   9.4959921  75.1586227  47.6156353  10.3612918  74.9629036  47.2562243
   9.5637430  74.9296579  48.5425710  19.1105052  85.4483808  41.0866547
  18.3334495  85.1094968  40.6421709  19.7896533  85.4536431  40.4121512
  13.9257081  80.5678546  40.9773154  13.6207216  80.8824695  41.8283298
  14.8787523  80.6459966  41.0200487  12.3703513  86.7268769  42.6266108
  11.8424874  85.9921529  42.3139346  11.8691015  87.5043445  42.3806077
  17.3496359  84.9217790  47.7433155  16.6920033  85.6117051  47.8313283
  18.1536758  85.3114221  48.0867141   7.1022240  77.3888435  44.9872720
   7.6765992  77.1663617  44.2545913   7.6893223  77.4577130  45.7401321
  16.1601818  83.2762162  45.7937096  16.6733699  83.9092154  46.2958806
  16.8103041  82.6763358  45.4280456   7.4291827  79.4192896  39.0068605
   6.5929140  79.7567583  39.3277880   7.2896597  79.2841876  38.0695742
   9.4044908  74.2629684  43.7147789   8.7509320  73.9478701  43.0904404
   9.3625382  73.6405425  44.4407612  10.5156113  84.5448979  35.6301081
   9.6083175  84.3138233  35.8292230  11.0127145  83.7486599  35.8175063
  13.4224192  93.2546487  38.5497768  12.7485891  93.5578183  39.1582725
  13.8090014  94.0575567  38.2003225  12.6382648  80.7511618  48.0395437
  11.7205210  80.9726565  47.8817125  13.0542792  80.8257928  47.1807144
  13.4217696  82.1503033  43.1698117  14.1689515  82.6624431  42.8605239
  13.6909286  81.8287086  44.0302511  11.6944346  84.6461574  40.1525071
  10.7855566  84.3620607  40.2497541  11.7239430  85.0660653  39.2928378
  16.9263614  88.2568164  43.9216239  16.4725941  87.4159074  43.9781429
  16.2957580  88.8929562  44.2591019  15.8696533  79.1860150  45.1516906
  15.1319290  78.6737536  45.4827149  16.1223307  78.7460531  44.3400183
  15.3696553  90.0944660  44.8566057  15.6619527  90.6549717  44.1378423
  15.8795174  90.3873221  45.6119216  15.9708161  71.9636402  45.7458676
  16.2767037  71.1033765  45.4584591  16.6960765  72.5554022  45.5457670
   2.2632517  82.3667088  44.1340274   2.0656917  81.7736449  43.4091340
   1.7079181  82.0619299  44.8516212  10.2429240  82.2590195  46.2534867
  10.2977850  81.3064031  46.1777343   9.4320442  82.4149634  46.7376165
  11.3920434  86.1870318  37.4913150  10.9539864  85.4706177  37.0318787
  12.1330875  86.4146433  36.9298241   8.1821600  80.8767255  44.0125246
   7.3689466  81.1761425  44.4190438   8.6780595  80.4822943  44.7299728
  10.3330178  90.8725011  45.9459510  10.2906357  91.0985858  45.0168042
  11.2492877  90.6388386  46.0945312  13.7795812  81.3409079  52.8440140
  14.1345200  81.5680552  53.7034605  14.4267943  81.6727456  52.2217395
  19.5093549  84.4627515  43.5489469  19.3711448  84.6529111  42.6210658
  19.1529768  85.2246898  44.0057520   7.6735675  78.4485610  49.6286481
   8.3135054  78.3074369  48.9309444   6.8413206  78.1620123  49.2525083
  19.5362929  86.5304042  48.5600740  19.9699435  86.4379331  49.4083794
  20.2494509  86.5061542  47.9220756   8.4495979  87.7488040  45.7421473
   9.2436577  87.2538361  45.5404048   7.7387671  87.2205904  45.3789179
  13.2690823  90.1306136  50.0933841  13.3227846  90.6997072  50.8611557
  12.4005605  90.3008021  49.7287878   4.7578742  81.8931122  41.8181226
   3.8276331  81.8315578  42.0351188   4.8536214  81.3707075  41.0217867
   4.6764292  78.4185935  44.4059467   4.9371109  79.3331268  44.2968628
   5.4981464  77.9510378  44.5556080   6.1489217  79.8323692  51.5758292
   6.8212270  79.6241054  50.9270941   5.3219003  79.6345778  51.1363524
  20.3978478  86.5727743  51.0933626  20.5914368  87.4773553  51.3392900
  20.2979096  86.1135162  51.9272211  12.0514789  76.4585633  53.5923953
  11.4042704  77.1575583  53.4988429  12.8215804  76.8921777  53.9600201
  15.4593587  86.7234485  56.6674506  15.3079093  86.4945037  55.7504590
  15.4498266  87.6805087  56.6805851  12.2278923  84.2966398  51.6520773
  13.1570983  84.4477558  51.4789740  11.8069953  84.3850419  50.7969419
  11.0267255  88.3217062  49.4219310  10.8878341  87.9535847  50.2945248
  10.2381851  88.8364702  49.2503268  11.6215407  93.4226159  40.7644847
  11.7967163  92.9514202  41.5790469  10.9348195  94.0491925  40.9926107
  12.5772470  87.6998665  46.8108148  12.2422303  87.6599435  47.7065798
  12.0776416  87.0343381  46.3378558   6.5516714  83.1066295  52.3360729
   6.4136512  82.3746534  52.9372268   7.4621638  83.0175195  52.0544917
  15.5131662  85.0454700  37.0845208  14.8960832  84.3201528  36.9878260
  15.0448150  85.8064060  36.7412282   9.1799015  82.8186255  51.8244409
   9.8898633  82.1779447  51.7831027   9.1368323  83.0699149  52.7470590
  17.1685793  89.7553608  54.7450988  17.1098340  89.0712828  54.0781571
  17.5705312  90.4972598  54.2931614   7.8927949  79.8051472  53.6440048
   7.3565306  79.3542211  54.2961645   7.3044657  79.9397381  52.9010513
   6.1876492  96.5715522  47.5384707   6.4273090  97.2034046  48.2163725
   5.3445689  96.2203562  47.8250066   7.3030208  79.2640124  36.2066512
   6.4259674  79.1428925  35.8428759   7.7787961  78.4726202  35.9545401
  17.1703201  87.7193192  52.9764968  16.2829979  87.3819114  53.0991367
  17.7401752  86.9876223  53.2133733   3.6267070  78.9407480  50.7293043
   3.5425259  78.3333150  49.9943453   2.8049776  79.4316498  50.7302539
  10.7004354  92.3794644  49.9426211  10.6274526  93.1849616  50.4545515
  10.2581747  92.5786610  49.1174232  10.4894134  91.6166414  43.4529032
   9.7061656  92.1588094  43.5467257  11.1886879  92.1340394  43.8523274
  13.7990784  77.4261044  46.0963238  14.2959483  76.6731006  45.7764308
  13.0277765  77.4625360  45.5306447  21.6520541  83.1301409  47.7381529
  21.6410417  84.0126125  47.3675462  20.7837921  82.7772960  47.5436066
  13.1603038  92.2781478  52.0984370  13.8731010  92.9128943  52.0260271
  12.6693066  92.3745344  51.2824371  14.8820565  86.1832731  43.6701661
  13.9476843  86.3034193  43.5006366  15.0597233  85.2805198  43.4061671
  10.3825753  79.5678427  45.8234922  10.0123540  79.0149467  46.5115828
  10.8784845  78.9636560  45.2709922  18.2693116  82.0250050  44.2051695
  18.7353568  82.8578042  44.1311998  18.7200616  81.5595032  44.9096954
   8.2114951  90.0275922  52.9189940   8.9124411  90.6612405  53.0719335
   7.7410066  90.3690653  52.1585580  16.3369347  88.3693871  41.2037847
  16.6129191  88.2550466  42.1131721  15.4673846  87.9711356  41.1650020
  16.2409779  74.3930637  48.2442597  15.3272858  74.6234864  48.4124804
  16.6702880  74.4769081  49.0956629  16.0116237  82.5820529  50.7442491
  15.3587687  82.8296437  50.0894943  16.3896617  81.7684667  50.4104968
  12.9723411  92.6180222  44.8470661  13.1545806  91.8001878  45.3098413
  13.7956397  92.8347915  44.4095551  13.3065577  91.5448407  42.1085709
  13.8353343  91.0340862  41.4955872  13.5693796  91.2290938  42.9731242
  12.0603810  83.3240340  57.2308528  11.3844447  83.2234469  57.9010903
  12.8831444  83.1679554  57.6944525   3.8082669  89.5612277  49.8521043
   4.3936106  88.8155965  49.9848947   3.6107508  89.8716233  50.7357707
   6.6621324  92.5963524  44.8683485   5.9931700  93.0809652  44.3847525
   6.5234194  92.8432745  45.7826864  10.8026593  94.6307268  51.4666144
  11.3544901  94.7938889  52.2315229  11.1432786  95.2211705  50.7946169
   5.7791086  76.9782417  52.0688028   5.8432413  77.8397248  51.6565426
   5.7158206  76.3656419  51.3360387   5.2543359  79.0505550  55.7161063
   5.8815398  78.6682627  56.3298587   4.3971278  78.8319752  56.0816755
  15.6537467  89.4568525  57.3214798  16.1977371  90.0698483  56.8269753
  15.0724312  90.0148104  57.8381811   2.0308902  80.8581979  41.6479418
   2.3262343  79.9492657  41.5946471   1.1296937  80.8369718  41.3260420
  13.9394980  92.5789243  48.4529826  13.8146120  91.7778983  47.9440771
  14.5974071  93.0735436  47.9643796   5.5603149  78.9337976  47.6306966
   4.8389734  79.5473943  47.4914439   6.3496404  79.4695740  47.5523612
  16.0029889  90.3798263  50.0809376  15.0560224  90.2603614  50.0087703
  16.3512662  89.4920761  50.1635637   8.3629462  76.2692402  53.9047618
   8.8863864  76.5154699  54.6673927   8.1441795  77.1012437  53.4850755
   3.7596743  78.5396077  41.7718743   3.4309449  77.6593456  41.5893849
   4.1136114  78.4843745  42.6595132  13.0076322  90.1750979  46.2813728
  12.8601284  89.2467687  46.4621298  13.8329815  90.1971070  45.7970803
   6.8738566  78.8269047  42.1394220   7.2134639  79.3554968  41.4172829
   7.3210687  79.1649453  42.9152787  16.6110444  90.9979538  47.3678601
  17.5356991  90.7922399  47.2303052  16.4425747  90.7495939  48.2767942
   9.5682007  77.2106097  51.5897288   9.2278827  76.4113910  51.9917968
   8.8621013  77.5107808  51.0174122  10.2198479  74.2955410  50.0424611
  11.0424548  73.8215888  49.9203502  10.4636542  75.0745893  50.5423298
   8.8606713  77.3243668  40.3387513   9.5815076  77.7024921  39.8351230
   8.2372018  78.0432545  40.4422491  13.0037836  78.0288817  41.2745845
  13.2201451  78.9113455  40.9734674  12.5231903  77.6375030  40.5451487
   7.7437058  80.9874530  47.8516590   7.5981638  81.3014833  48.7440872
   7.2662261  81.6059431  47.2987489   9.6033441  77.9777078  47.8997480
   9.5895009  77.0818172  47.5629778  10.3205869  77.9847742  48.5335766
  11.4559571  78.4114418  49.9450607  11.1977349  79.3331489  49.9434937
  10.9244612  78.0144853  50.6351071  16.4005760  91.5165206  42.7240692
  16.5742638  90.9511628  41.9714545  16.8934651  92.3166100  42.5420182
   2.2182720  83.5279875  50.7904251   1.6736188  84.3039683  50.9224526
   3.0962070  83.8750679  50.6323373   9.0070336  76.8591459  43.1685050
   9.1286248  75.9308105  43.3675937   8.7172379  76.8730145  42.2563365
  11.8761527  74.5446369  46.3051770  11.8983224  74.6085702  45.3503749
  12.2929586  73.7050878  46.4992276  22.2545151  84.2801629  44.3430992
  22.6976297  83.5308954  43.9450115  21.3771661  84.2711765  43.9604724
  17.3880933  90.8331970  39.8237591  18.0831837  91.4538663  40.0424905
  17.7304083  89.9827321  40.0989969   3.0048742  82.6549771  53.6834408
   2.2630478  82.8032406  54.2699039   2.6841486  82.9158037  52.8201158
  19.2872356  88.2831676  41.3524921  19.8123680  88.6218948  40.6274242
  19.1994708  87.3478691  41.1688056  10.9492404  92.1965749  53.4814798
  11.2579531  91.9514896  54.3537498  11.7467886  92.4012388  52.9933668
  10.9713016  94.3503659  45.7120175  10.5318007  93.8580038  46.4053031
  11.7221133  93.8076626  45.4712250   3.4505355  90.5415200  45.7144803
   4.2763375  90.2418972  45.3343446   3.0999407  89.7722822  46.1634591
   8.4186889  89.8941668  47.7842476   7.7966898  89.2312373  47.4844704
   9.0891755  89.9202800  47.1016124   1.6513960  88.4601526  46.6733736
   0.8145869  88.0323700  46.4917738   1.6237606  88.6533969  47.6104528
   8.4911416  78.3723456  57.3774982   8.5399572  79.2485579  56.9952752
   9.0333930  77.8300849  56.8046626  18.9766262  88.9164579  56.6576119
  18.1861805  88.8988718  56.1180619  18.7399616  89.4552873  57.4125156
  19.0964137  85.7657046  53.9708848  19.1462142  85.6007053  54.9124371
  18.9878060  84.8984305  53.5806729   7.9800395  88.4445591  41.2600937
   8.1288516  89.1281056  40.6067610   8.7866839  88.4250681  41.7750393
  16.3867899  81.7487974  55.2868155  17.2877762  81.6094438  54.9952152
  16.4615874  81.9142428  56.2266332  10.7210704  79.1254828  54.1321341
   9.8514014  79.4188394  53.8603930  10.9570185  79.7095273  54.8528605
  20.5982334  88.1853987  54.2150870  20.3067142  88.5483968  55.0514330
  19.9854465  87.4720995  54.0364202  21.7978016  85.7506867  46.7353440
  22.6324907  86.1896671  46.8991000  21.9337145  85.2745520  45.9161686
  18.8469522  83.3086602  52.6830928  19.3223643  83.5014248  51.8749779
  17.9235087  83.3645788  52.4374311   5.7353028  84.4710769  42.2662006
   5.4899070  83.5673099  42.4642216   5.9048943  84.4727919  41.3241484
  13.4249738  75.3434445  51.6486761  13.9431682  76.0795472  51.3233250
  13.0704871  75.6498439  52.4833521   5.0048676  80.2039126  39.7648167
   4.3117921  80.2783481  39.1088203   4.7600428  79.4399470  40.2869684
  13.6762332  71.7634728  47.1687658  13.9564086  71.0957917  47.7948085
  14.4612939  71.9563823  46.6562322  11.4795801  90.9393722  38.7312684
  10.9069768  91.5583909  38.2783156  12.0528595  91.4893083  39.2652606
  17.5471191  80.1852362  50.9159233  18.4988614  80.2850459  50.9371457
  17.3774641  79.3930630  51.4257317  15.5685570  77.2707945  51.1018634
  14.9735502  77.5512958  50.4065123  15.2835267  77.7601846  51.8735375
  14.6993061  91.2230872  39.8621267  15.6323734  91.1576434  40.0654142
  14.6116274  92.0587139  39.4035799  17.3281077  90.5396742  36.8225214
  17.2494709  90.2056606  37.7160972  18.1490744  91.0318510  36.8216686
  20.0259269  83.4058481  50.0301533  19.9935589  82.4674482  50.2161217
  20.6359892  83.4842518  49.2967358  11.8642599  82.2754534  36.0728737
  12.8101704  82.1460743  36.1417155  11.4856844  81.5369196  36.5498165
  20.1753757  80.1969525  50.0759816  19.6592806  79.4127982  49.8889745
  21.0593706  79.8688242  50.2406335  17.8364484  73.9410540  46.0355629
  17.6389305  73.6325629  46.9198961  18.4464190  74.6672179  46.1653558
  25.8435818  84.4674488  49.1707570  26.5739207  84.2059776  49.7315273
  25.2342764  83.7303210  49.2109638  23.9251116  82.6082351  49.7682021
  23.1984279  82.4738316  49.1598512  23.5098402  82.9159180  50.5738739
  11.7481292  86.3272281  57.5329394  12.6684301  86.5050880  57.7269440
  11.7130875  85.3828326  57.3809093  10.0485517  80.2004511  36.0083622
   9.1416972  79.9037624  36.0846336  10.3261498  79.9034329  35.1417908
   0.9663457  81.5210874  46.4582668   0.6466241  80.6676182  46.1657042
   0.4196885  81.7359452  47.2140636   4.7443365  84.2373315  50.1752175
   4.9629374  85.1690423  50.1940209   5.1569138  83.8781290  50.9606979
  11.6647582  74.7441401  42.1627863  10.8548311  74.3988486  42.5383109
  12.3531999  74.4348944  42.7515475  13.5938131  73.8219447  43.7852160
  14.1469169  74.2414901  44.4442183  13.8308217  72.8955195  43.8275116
   9.6171230  79.8106521  59.5654924   9.5167957  80.7600878  59.4967015
   9.3992772  79.4824760  58.6930994   8.8184301  77.0591446  36.1495601
   9.6803465  77.3846344  36.4091419   9.0034645  76.2722942  35.6368667
  16.9716938  75.9319973  43.2930824  16.3915607  76.5904777  42.9108877
  16.7052870  75.1097317  42.8818242  15.4220504  75.3325030  45.4952145
  15.9220282  75.4441565  44.6866463  16.0656112  75.0286083  46.1352953
   9.4802500  83.2403660  58.3819986   8.9969582  84.0404020  58.5883875
   9.5663439  83.2511605  57.4287430   2.7488460  85.0732040  46.3041805
   2.7259148  85.1719727  45.3523688   3.0589096  85.9197190  46.6258971
   5.4075837  87.1308195  50.4188419   6.3619091  87.0992137  50.3518351
   5.2088361  86.6698818  51.2338645   5.9975220  85.7009311  52.9859217
   6.8168109  86.1953389  53.0094054   6.2712027  84.7841279  52.9576784
  15.7541816  78.0920063  42.3487173  14.8667671  78.3769714  42.1307367
  16.1695805  77.9313826  41.5014449  19.1056352  78.1166584  46.0641512
  19.8816742  78.6063036  46.3366129  18.3804486  78.5424638  46.5213381
  21.5428911  78.8294203  47.1215452  22.1373401  78.5889939  46.4108761
  21.6155494  78.1101334  47.7488989   3.7626066  92.6727814  47.4358617
   3.6280534  91.9128215  46.8696615   3.3458128  93.3968714  46.9687406
  14.8985029  87.8564738  36.4435192  15.6020879  88.0614740  37.0592848
  14.1747678  88.4241499  36.7084276  15.7282839  83.6074599  42.5637463
  15.6718041  84.0643150  41.7245095  16.2811182  82.8465283  42.3860305
  19.5387645  79.3964331  43.3887582  19.2824580  78.9960966  44.2195790
  18.9140513  80.1108125  43.2637721  23.8499983  82.1360404  45.8958874
  23.2899541  82.2053593  46.6690436  23.2443487  81.9601389  45.1758370
   6.9195192  93.5697131  47.6477060   6.8027576  94.5142564  47.5455750
   6.0987638  93.2670693  48.0362859  16.8071727  88.2947267  38.4933653
  17.6417331  87.8628465  38.3111127  16.6456070  88.1229280  39.4210547
  16.4617619  84.7979380  39.8589992  16.4066423  84.6323652  38.9178436
  15.8363674  85.5055413  40.0152182   1.2510134  80.0347444  53.6851414
   1.8968997  79.5246398  54.1738639   1.0427285  80.7716126  54.2594839
  13.7763526  87.1028292  59.1843555  14.6454686  87.2768944  58.8230190
  13.2970277  87.9222709  59.0619284   9.7713744  74.2987489  39.4375310
   9.7592414  75.2429329  39.5943581  10.6637166  74.1157634  39.1434771
   7.9449706  94.2225393  50.8632988   8.8476953  94.2549003  51.1799483
   7.7187076  93.2925844  50.8779324   9.7003308  92.9756379  47.5243067
   8.7498939  92.9758241  47.4107439  10.0035794  92.2289114  47.0079102
  13.5865864  70.8930266  43.6921247  12.8198260  70.3388752  43.8377929
  13.9976569  70.9652134  44.5535399   5.5907625  77.1815062  57.7826428
   6.4539086  76.8251866  57.9929753   5.0173035  76.8428956  58.4701833
  25.4356002  98.8116918  48.5888829  26.0734412  98.6923665  47.8852169
  25.3176845  99.7597762  48.6476781  22.2445708  98.7644346  48.5250354
  21.9064220  98.6485411  47.6370889  23.1135476  98.3635511  48.5051360
  18.1032524 100.6179822  44.5147245  17.5397389 100.5269759  43.7463533
  17.9884919  99.7979727  44.9949737  22.7265491  99.9179198  54.4836559
  22.7154132  99.5231996  53.6117063  22.8886130  99.1845270  55.0770331
  15.6496956 102.1131014  47.3531465  16.4418248 101.7721839  46.9377765
  15.8893606 102.2225989  48.2733619  23.6832082 104.2850790  39.8261710
  23.0320062 104.8704871  39.4395724  24.4776445 104.8156985  39.8856747
  17.6087710 101.3739927  40.2248844  18.3818586 100.8268914  40.0861720
  17.9613108 102.2384177  40.4363306  19.4472752 102.7016310  53.4315743
  19.1562618 103.6061940  53.3162410  20.0829736 102.7432837  54.1459813
  20.3728959 100.0793158  50.0217103  20.9692531  99.8549180  49.3074066
  20.4303931  99.3377904  50.6242551  19.9453987  97.5332593  37.8567294
  20.1979508  97.0114115  37.0950757  19.0078546  97.3698739  37.9593978
  24.9897270  96.5368372  45.6642037  25.7760359  96.1187795  45.3132454
  25.2535975  97.4414464  45.8323686  25.1607348 101.9741222  40.3630694
  24.5253181 102.0475849  41.0751599  24.8304754 102.5634821  39.6849773
  30.3905697  96.4743605  46.5675016  31.1230869  95.9042822  46.8012845
  29.6345053  96.0865205  47.0081521  19.6650276  99.4360699  40.0591669
  19.5486534  98.7605603  40.7272753  19.7752536  98.9493073  39.2423822
  22.0081817  98.8970846  43.7638358  21.6440024  98.3701467  44.4751280
  22.8648933  98.5069315  43.5904844  27.9131118  90.1865179  51.0269624
  27.5814442  91.0560590  50.8030839  27.3176731  89.8701463  51.7063655
  21.6487304  93.9260746  38.7599707  21.8161706  94.7940983  39.1270178
  21.4584473  94.0888028  37.8360996  24.4062637 102.3877725  50.4265537
  24.1063360 103.2902764  50.3181344  24.0613697 102.1209908  51.2786690
  17.8575119  98.8391522  46.4602242  16.9325615  98.7067736  46.6679933
  18.1059532  99.6185741  46.9572184  27.8059781  94.9060265  48.1062974
  26.8976658  94.8375674  47.8121735  27.7547377  95.3832210  48.9344800
  21.6276525  96.3818404  39.7446374  21.5076150  96.8275454  40.5831854
  20.9329113  96.7303721  39.1859912  15.2183930  98.4824795  47.2946031
  15.3476311  98.7359274  48.2085442  14.5381381  99.0752503  46.9750686
  21.8800647  96.3249911  56.0497872  21.1033981  96.8843831  56.0400736
  22.5191210  96.8106694  56.5712742  29.6721427  93.1076704  49.8840848
  29.0295808  93.4009237  49.2380643  29.1676356  92.9929624  50.6894045
  27.3261591  96.8539877  40.5726708  28.2379447  97.0867264  40.3974405
  26.8171238  97.4376921  40.0101786  20.1347019  99.1335364  55.6115839
  20.8761703  99.6720408  55.3350662  19.4284005  99.7601653  55.7687391
  25.6102359 101.2764505  54.2088000  26.0185715 100.8346915  53.4642633
  24.8879620 100.7017132  54.4622193  21.9633429  96.2137111  51.5821557
  22.8094624  96.6376525  51.7256206  21.9032066  95.5570736  52.2760120
  25.9331173 101.8365695  47.9640289  25.3040036 102.0011409  47.2616357
  25.5456835 102.2507305  48.7351253  29.8120405 102.7720133  45.3184653
  29.1271443 103.1519034  44.7681686  29.8964255 103.3815460  46.0516601
  25.1132874  93.8741480  53.2402731  24.8693806  94.6283540  52.7037007
  25.3892805  94.2526827  54.0749978  27.0671337 100.4180092  51.9179996
  27.2788232 101.0611852  51.2414377  27.0201085  99.5842409  51.4501926
  24.6697566  93.0297913  48.8216569  23.8082045  93.3279166  49.1133306
  24.6960000  93.2468312  47.8897601  21.4859135 101.5740103  45.2290374
  21.9497481 101.8527806  44.4394997  21.2215933 100.6723548  45.0463465
  18.3783216 101.1211585  48.1670137  18.9484573 101.5498853  47.5287622
  18.9691328 100.8394170  48.8654323  20.4228021  97.6963256  42.0379939
  21.1252065  98.1484299  42.5053866  20.0908650  97.0547075  42.6659832
  18.8708383  96.2875012  56.4131149  18.2407043  96.9691293  56.6466546
  18.7644471  96.1758094  55.4684287  14.1653355  95.9546808  47.3397073
  13.3752409  96.2104337  46.8637184  14.6564603  96.7695146  47.4449113
  28.1817165 103.2952048  50.0902354  29.0034609 102.8932235  49.8085035
  28.1779568 103.1920282  51.0418470  16.1168101  96.3191388  44.2980550
  15.3199264  96.4310082  44.8164045  15.8893693  96.6578040  43.4321440
  21.9473768 102.8436091  52.2463064  22.0118201 103.3056498  53.0821236
  21.2384692 102.2133456  52.3745374  12.4491058  96.2077299  49.7712064
  12.6999097  97.0924309  50.0369640  12.9850607  96.0281900  48.9987156
  36.2723158  99.6390796  46.4387325  35.5186866  99.0698194  46.2831330
  36.4070699  99.6053461  47.3857960  21.6621786 104.5104198  42.1142045
  21.5267461 105.3555734  42.5426892  22.2031598 104.7123476  41.3507978
  18.1489126  90.5895778  58.7756400  17.7556071  90.0361977  59.4504044
  18.9655266  90.9006357  59.1662917  15.1151183 102.0279636  42.6869970
  15.6275704 102.8222887  42.8375534  15.7673896 101.3305927  42.6203571
  16.9246068 105.1445393  44.7692723  17.1012696 106.0663357  44.5813707
  17.7202902 104.8303812  45.1987103  21.0657087  92.0053657  56.3676656
  21.8066800  92.6060810  56.2881119  21.2975009  91.2631295  55.8094699
  16.2098425  97.1910025  54.6454886  16.0951940  96.2895282  54.9461985
  15.3542942  97.4373721  54.2939703  23.2890262 105.1327765  56.2442387
  22.8454116 104.3464143  55.9263291  23.9507476 105.3206915  55.5786277
  18.0477383 106.6623566  50.7703065  18.5984809 106.5340630  49.9980059
  17.2088859 106.9618455  50.4197958  25.3871500 105.4130565  54.2723788
  25.3689976 106.2339446  53.7804057  26.3091420 105.2884640  54.4973929
  21.8444555 102.9274694  55.1147296  22.3772891 102.1662982  54.8846604
  21.3158636 102.6348346  55.8571451  25.0114250  88.0334760  50.6440938
  24.6678519  88.9236402  50.5680049  25.3793212  87.8436418  49.7810523
  13.0800100 100.3568291  43.4629540  13.9175322 100.7665299  43.2463248
  13.2578368  99.4167733  43.4329734  24.9764532  98.0243371  39.1513373
  24.4611156  98.7947976  39.3901761  24.7041841  97.3508507  39.7746435
  22.5611643  92.8693072  44.2098612  21.7053240  92.4799922  44.0304250
  22.9738595  92.9485033  43.3498397  24.0910790  90.4039415  48.6090171
  23.5875585  90.3669551  47.7957977  24.3841397  91.3132158  48.6686828
  20.3353676  90.4878145  47.6156353  21.2006673  90.2920954  47.2562243
  20.4031185  90.2588497  48.5425710  29.9498806 100.7775726  41.0866547
  29.1728249 100.4386885  40.6421709  30.6290287 100.7828349  40.4121512
  24.7650835  95.8970463  40.9773154  24.4600971  96.2116613  41.8283298
  25.7181278  95.9751883  41.0200487  23.2097267 102.0560687  42.6266108
  22.6818629 101.3213446  42.3139346  22.7084770 102.8335363  42.3806077
  28.1890113 100.2509707  47.7433155  27.5313788 100.9408969  47.8313283
  28.9930512 100.6406139  48.0867141  17.9415995  92.7180353  44.9872720
  18.5159747  92.4955535  44.2545913  18.5286977  92.7869048  45.7401321
  26.9995572  98.6054080  45.7937096  27.5127454  99.2384072  46.2958806
  27.6496796  98.0055275  45.4280456  18.2685582  94.7484814  39.0068605
  17.4322894  95.0859501  39.3277880  18.1290352  94.6133794  38.0695742
  20.2438663  89.5921602  43.7147789  19.5903075  89.2770619  43.0904404
  20.2019137  88.9697342  44.4407612  21.3549867  99.8740897  35.6301081
  20.4476929  99.6430150  35.8292230  21.8520899  99.0778516  35.8175063
  24.2617946 108.5838404  38.5497768  23.5879645 108.8870101  39.1582725
  24.6483768 109.3867485  38.2003225  23.4776403  96.0803535  48.0395437
  22.5598964  96.3018482  47.8817125  23.8936547  96.1549846  47.1807144
  24.2611451  97.4794951  43.1698117  25.0083270  97.9916348  42.8605239
  24.5303040  97.1579004  44.0302511  22.5338101  99.9753492  40.1525071
  21.6249320  99.6912525  40.2497541  22.5633185 100.3952570  39.2928378
  27.7657368 103.5860081  43.9216239  27.3119695 102.7450991  43.9781429
  27.1351335 104.2221480  44.2591019  26.7090288  94.5152067  45.1516906
  25.9713045  94.0029454  45.4827149  26.9617061  94.0752449  44.3400183
  26.2090308 105.4236578  44.8566057  26.5013282 105.9841635  44.1378423
  26.7188928 105.7165139  45.6119216  26.8101915  87.2928319  45.7458676
  27.1160792  86.4325683  45.4584591  27.5354520  87.8845940  45.5457670
  13.1026271  97.6959006  44.1340274  12.9050671  97.1028367  43.4091340
  12.5472935  97.3911216  44.8516212  21.0822995  97.5882112  46.2534867
  21.1371605  96.6355949  46.1777343  20.2714197  97.7441552  46.7376165
  22.2314189 101.5162236  37.4913150  21.7933619 100.7998094  37.0318787
  22.9724630 101.7438350  36.9298241  19.0215355  96.2059172  44.0125246
  18.2083220  96.5053343  44.4190438  19.5174349  95.8114861  44.7299728
  21.1723933 106.2016929  45.9459510  21.1300111 106.4277775  45.0168042
  22.0886632 105.9680304  46.0945312  24.6189567  96.6700997  52.8440140
  24.9738954  96.8972470  53.7034605  25.2661698  97.0019373  52.2217395
  30.3487303  99.7919433  43.5489469  30.2105202  99.9821029  42.6210658
  29.9923522 100.5538815  44.0057520  18.5129430  93.7777528  49.6286481
  19.1528809  93.6366287  48.9309444  17.6806960  93.4912041  49.2525083
  30.3756683 101.8595960  48.5600740  30.8093190 101.7671249  49.4083794
  31.0888264 101.8353460  47.9220756  19.2889733 103.0779958  45.7421473
  20.0830332 102.5830278  45.5404048  18.5781426 102.5497821  45.3789179
  24.1084578 105.4598054  50.0933841  24.1621600 106.0288990  50.8611557
  23.2399359 105.6299939  49.7287878  15.5972497  97.2223040  41.8181226
  14.6670085  97.1607495  42.0351188  15.6929969  96.6998993  41.0217867
  15.5158046  93.7477853  44.4059467  15.7764863  94.6623186  44.2968628
  16.3375218  93.2802295  44.5556080  16.9882971  95.1615610  51.5758292
  17.6606025  94.9532972  50.9270941  16.1612758  94.9637696  51.1363524
  31.2372233 101.9019660  51.0933626  31.4308123 102.8065471  51.3392900
  31.1372851 101.4427079  51.9272211  22.8908543  91.7877551  53.5923953
  22.2436458  92.4867500  53.4988429  23.6609559  92.2213695  53.9600201
  26.2987341 102.0526403  56.6674506  26.1472848 101.8236955  55.7504590
  26.2892021 103.0097004  56.6805851  23.0672678  99.6258316  51.6520773
  23.9964738  99.7769475  51.4789740  22.6463708  99.7142337  50.7969419
  21.8661009 103.6508980  49.4219310  21.7272095 103.2827765  50.2945248
  21.0775606 104.1656620  49.2503268  22.4609161 108.7518077  40.7644847
  22.6360917 108.2806120  41.5790469  21.7741949 109.3783843  40.9926107
  23.4166225 103.0290583  46.8108148  23.0816057 102.9891353  47.7065798
  22.9170170 102.3635299  46.3378558  17.3910469  98.4358213  52.3360729
  17.2530267  97.7038452  52.9372268  18.3015392  98.3467113  52.0544917
  26.3525416 100.3746617  37.0845208  25.7354587  99.6493445  36.9878260
  25.8841905 101.1355977  36.7412282  20.0192769  98.1478172  51.8244409
  20.7292388  97.5071364  51.7831027  19.9762077  98.3991067  52.7470590
  28.0079548 105.0845526  54.7450988  27.9492094 104.4004746  54.0781571
  28.4099066 105.8264516  54.2931614  18.7321703  95.1343390  53.6440048
  18.1959060  94.6834129  54.2961645  18.1438412  95.2689299  52.9010513
  18.1423962  94.5932041  36.2066512  17.2653429  94.4720842  35.8428759
  18.6181715  93.8018120  35.9545401  28.0096955 103.0485109  52.9764968
  27.1223734 102.7111031  53.0991367  28.5795506 102.3168141  53.2133733
   9.6626102  99.3809201  46.3008019  10.3497142  99.0670931  45.7129034
   9.5074231 100.2850566  46.0275270  14.4660824  94.2699398  50.7293043
  14.3819013  93.6625067  49.9943453  13.6443531  94.7608416  50.7302539
  21.5398109 107.7086562  49.9426211  21.4668280 108.5141533  50.4545515
  21.0975502 107.9078528  49.1174232  21.3287888 106.9458332  43.4529032
  20.5455410 107.4880012  43.5467257  22.0280633 107.4632311  43.8523274
  24.6384538  92.7552961  46.0963238  25.1353238  92.0022924  45.7764308
  23.8671520  92.7917278  45.5306447  32.4914296  98.4593327  47.7381529
  32.4804172  99.3418042  47.3675462  31.6231675  98.1064878  47.5436066
  23.9996792 107.6073396  52.0984370  24.7124764 108.2420861  52.0260271
  23.5086821 107.7037262  51.2824371  25.7214319 101.5124649  43.6701661
  24.7870598 101.6326111  43.5006366  25.8990987 100.6097115  43.4061671
  21.2219507  94.8970344  45.8234922  20.8517295  94.3441385  46.5115828
  21.7178600  94.2928478  45.2709922  29.1086870  97.3541968  44.2051695
  29.5747323  98.1869959  44.1311998  29.5594371  96.8886949  44.9096954
  19.0508706 105.3567839  52.9189940  19.7518165 105.9904322  53.0719335
  18.5803821 105.6982571  52.1585580  27.1763101 103.6985789  41.2037847
  27.4522945 103.5842384  42.1131721  26.3067600 103.3003274  41.1650020
  27.0803533  89.7222555  48.2442597  26.1666613  89.9526782  48.4124804
  27.5096635  89.8060999  49.0956629  26.8509992  97.9112447  50.7442491
  26.1981442  98.1588354  50.0894943  27.2290372  97.0976585  50.4104968
  23.8117165 107.9472140  44.8470661  23.9939560 107.1293796  45.3098413
  24.6350152 108.1639832  44.4095551  24.1459331 106.8740325  42.1085709
  24.6747097 106.3632780  41.4955872  24.4087551 106.5582855  42.9731242
  22.8997565  98.6532258  57.2308528  22.2238202  98.5526387  57.9010903
  23.7225199  98.4971472  57.6944525  14.6476424 104.8904194  49.8521043
  15.2329861 104.1447882  49.9848947  14.4501262 105.2008151  50.7357707
  17.5015079 107.9255442  44.8683485  16.8325454 108.4101569  44.3847525
  17.3627949 108.1724662  45.7826864   9.2394078  97.4609795  48.5725486
   9.2778178  96.9273385  49.3662604   8.7334371  96.9345000  47.9536463
  21.6420348 109.9599185  51.4666144  22.1938656 110.1230807  52.2315229
  21.9826541 110.5503623  50.7946169  16.6184841  92.3074335  52.0688028
  16.6826167  93.1689166  51.6565426  16.5551961  91.6948337  51.3360387
  16.0937113  94.3797468  55.7161063  16.7209152  93.9974545  56.3298587
  15.2365032  94.1611670  56.0816755  26.4931222 104.7860443  57.3214798
  27.0371126 105.3990401  56.8269753  25.9118067 105.3440021  57.8381811
  12.8702656  96.1873897  41.6479418  13.1656097  95.2784575  41.5946471
  11.9690692  96.1661636  41.3260420  24.7788735 107.9081161  48.4529826
  24.6539874 107.1070901  47.9440771  25.4367826 108.4027354  47.9643796
  16.3996903  94.2629893  47.6306966  15.6783489  94.8765861  47.4914439
  17.1890159  94.7987658  47.5523612  26.8423643 105.7090181  50.0809376
  25.8953979 105.5895532  50.0087703  27.1906416 104.8212679  50.1635637
  19.2023217  91.5984320  53.9047618  19.7257618  91.8446616  54.6673927
  18.9835550  92.4304355  53.4850755  14.5990498  93.8687994  41.7718743
  14.2703204  92.9885373  41.5893849  14.9529868  93.8135663  42.6595132
  23.8470076 105.5042897  46.2813728  23.6995039 104.5759605  46.4621298
  24.6723570 105.5262988  45.7970803  17.7132321  94.1560964  42.1394220
  18.0528393  94.6846885  41.4172829  18.1604441  94.4941370  42.9152787
  27.4504198 106.3271456  47.3678601  28.3750746 106.1214317  47.2303052
  27.2819502 106.0787857  48.2767942  20.4075762  92.5398015  51.5897288
  20.0672582  91.7405828  51.9917968  19.7014768  92.8399726  51.0174122
  21.0592233  89.6247327  50.0424611  21.8818303  89.1507806  49.9203502
  21.3030297  90.4037811  50.5423298  19.7000468  92.6535586  40.3387513
  20.4208830  93.0316839  39.8351230  19.0765772  93.3724463  40.4422491
  23.8431591  93.3580735  41.2745845  24.0595205  94.2405373  40.9734674
  23.3625658  92.9666948  40.5451487  18.5830812  96.3166448  47.8516590
  18.4375393  96.6306751  48.7440872  18.1056016  96.9351348  47.2987489
  20.4427195  93.3068996  47.8997480  20.4288764  92.4110089  47.5629778
  21.1599623  93.3139660  48.5335766  22.2953326  93.7406336  49.9450607
  22.0371104  94.6623407  49.9434937  21.7638366  93.3436771  50.6351071
  27.2399515 106.8457123  42.7240692  27.4136392 106.2803546  41.9714545
  27.7328406 107.6458018  42.5420182  13.0576474  98.8571792  50.7904251
  12.5129942  99.6331600  50.9224526  13.9355824  99.2042597  50.6323373
  19.8464091  92.1883376  43.1685050  19.9680002  91.2600022  43.3675937
  19.5566133  92.2022062  42.2563365  22.7155281  89.8738287  46.3051770
  22.7376978  89.9377620  45.3503749  23.1323340  89.0342795  46.4992276
  33.0938906  99.6093546  44.3430992  33.5370052  98.8600871  43.9450115
  32.2165416  99.6003683  43.9604724  28.2274687 106.1623888  39.8237591
  28.9225592 106.7830580  40.0424905  28.5697837 105.3119239  40.0989969
  13.8442496  97.9841689  53.6834408  13.1024232  98.1324324  54.2699039
  13.5235240  98.2449954  52.8201158  30.1266110 103.6123593  41.3524921
  30.6517434 103.9510866  40.6274242  30.0388463 102.6770609  41.1688056
  21.7886159 107.5257667  53.4814798  22.0973285 107.2806814  54.3537498
  22.5861641 107.7304305  52.9933668  21.8106771 109.6795576  45.7120175
  21.3711761 109.1871955  46.4053031  22.5614888 109.1368544  45.4712250
  14.2899110 105.8707117  45.7144803  15.1157130 105.5710889  45.3343446
  13.9393162 105.1014740  46.1634591  19.2580643 105.2233586  47.7842476
  18.6360652 104.5604291  47.4844704  19.9285510 105.2494717  47.1016124
  12.4907715 103.7893444  46.6733736  11.6539623 103.3615618  46.4917738
  12.4631360 103.9825887  47.6104528  19.3305171  93.7015374  57.3774982
  19.3793326  94.5777496  56.9952752  19.8727685  93.1592767  56.8046626
  29.8160016 104.2456497  56.6576119  29.0255560 104.2280636  56.1180619
  29.5793371 104.7844791  57.4125156  29.9357891 101.0948963  53.9708848
  29.9855896 100.9298971  54.9124371  29.8271815 100.2276222  53.5806729
  18.8194150 103.7737509  41.2600937  18.9682270 104.4572973  40.6067610
  19.6260593 103.7542599  41.7750393  27.2261654  97.0779891  55.2868155
  28.1271516  96.9386356  54.9952152  27.3009628  97.2434346  56.2266332
  21.5604459  94.4546746  54.1321341  20.6907768  94.7480312  53.8603930
  21.7963939  95.0387191  54.8528605  31.4376088 103.5145905  54.2150870
  31.1460896 103.8775885  55.0514330  30.8248219 102.8012913  54.0364202
  32.6371770 101.0798785  46.7353440  33.4718662 101.5188589  46.8991000
  32.7730899 100.6037438  45.9161686  29.6863276  98.6378519  52.6830928
  30.1617398  98.8306166  51.8749779  28.7628842  98.6937705  52.4374311
  16.5746783  99.8002687  42.2662006  16.3292825  98.8965017  42.4642216
  16.7442697  99.8019837  41.3241484  24.2643493  90.6726363  51.6486761
  24.7825437  91.4087390  51.3233250  23.9098626  90.9790356  52.4833521
  15.8442430  95.5331044  39.7648167  15.1511675  95.6075399  39.1088203
  15.5994182  94.7691388  40.2869684  24.5156087  87.0926645  47.1687658
  24.7957841  86.4249835  47.7948085  25.3006694  87.2855741  46.6562322
  22.3189555 106.2685639  38.7312684  21.7463523 106.8875827  38.2783156
  22.8922349 106.8185001  39.2652606  28.3864945  95.5144279  50.9159233
  29.3382368  95.6142377  50.9371457  28.2168396  94.7222548  51.4257317
  26.4079325  92.5999863  51.1018634  25.8129257  92.8804875  50.4065123
  26.1229021  93.0893764  51.8735375  25.5386815 106.5522790  39.8621267
  26.4717488 106.4868351  40.0654142  25.4510028 107.3879056  39.4035799
  28.1674832 105.8688660  36.8225214  28.0888463 105.5348523  37.7160972
  28.9884499 106.3610428  36.8216686  30.8653023  98.7350399  50.0301533
  30.8329343  97.7966400  50.2161217  31.4753647  98.8134436  49.2967358
  22.7036354  97.6046452  36.0728737  23.6495459  97.4752660  36.1417155
  22.3250599  96.8661114  36.5498165  31.0147512  95.5261443  50.0759816
  30.4986560  94.7419899  49.8889745  31.8987460  95.1980159  50.2406335
  28.6758239  89.2702458  46.0355629  28.4783060  88.9617546  46.9198961
  29.2857944  89.9964097  46.1653558  36.6829573  99.7966406  49.1707570
  37.4132961  99.5351694  49.7315273  36.0736518  99.0595128  49.2109638
  34.7644870  97.9374269  49.7682021  34.0378034  97.8030234  49.1598512
  34.3492157  98.2451097  50.5738739  22.5875047 101.6564198  57.5329394
  23.5078056 101.8342797  57.7269440  22.5524630 100.7120244  57.3809093
  20.8879271  95.5296429  36.0083622  19.9810727  95.2329541  36.0846336
  21.1655252  95.2326247  35.1417908  11.8057212  96.8502792  46.4582668
  11.4859996  95.9968100  46.1657042  11.2590640  97.0651370  47.2140636
  15.5837119  99.5665233  50.1752175  15.8023129 100.4982341  50.1940209
  15.9962893  99.2073207  50.9606979  22.5041337  90.0733318  42.1627863
  21.6942065  89.7280403  42.5383109  23.1925754  89.7640862  42.7515475
  24.4331885  89.1511365  43.7852160  24.9862924  89.5706818  44.4442183
  24.6701971  88.2247113  43.8275116  20.4564984  95.1398439  59.5654924
  20.3561711  96.0892796  59.4967015  20.2386526  94.8116678  58.6930994
  19.6578056  92.3883364  36.1495601  20.5197220  92.7138262  36.4091419
  19.8428400  91.6014860  35.6368667  11.6745472 100.4705703  48.4275790
  10.9808943 100.0559656  47.9145744  12.4218463 100.5126240  47.8309209
  27.8110692  91.2611890  43.2930824  27.2309361  91.9196694  42.9108877
  27.5446625  90.4389235  42.8818242  26.2614259  90.6616948  45.4952145
  26.7614037  90.7733482  44.6866463  26.9049867  90.3578001  46.1352953
  20.3196254  98.5695578  58.3819986  19.8363336  99.3695938  58.5883875
  20.4057193  98.5803522  57.4287430  13.5882214 100.4023957  46.3041805
  13.5652902 100.5011644  45.3523688  13.8982851 101.2489108  46.6258971
  16.2469592 102.4600112  50.4188419  17.2012845 102.4284055  50.3518351
  16.0482115 101.9990736  51.2338645  16.8368974 101.0301228  52.9859217
  17.6561863 101.5245307  53.0094054  17.1105782 100.1133196  52.9576784
  26.5935570  93.4211981  42.3487173  25.7061425  93.7061631  42.1307367
  27.0089559  93.2605744  41.5014449  29.9450106  93.4458502  46.0641512
  30.7210496  93.9354954  46.3366129  29.2198241  93.8716556  46.5213381
  32.3822665  94.1586121  47.1215452  32.9767156  93.9181857  46.4108761
  32.4549249  93.4393251  47.7488989  25.7378784 103.1856655  36.4435192
  26.4414634 103.3906658  37.0592848  25.0141432 103.7533417  36.7084276
  26.5676594  98.9366517  42.5637463  26.5111795  99.3935068  41.7245095
  27.1204936  98.1757201  42.3860305  30.3781400  94.7256248  43.3887582
  30.1218334  94.3252884  44.2195790  29.7534268  95.4400042  43.2637721
  34.6893738  97.4652322  45.8958874  34.1293296  97.5345511  46.6690436
  34.0837241  97.2893306  45.1758370  27.6465481 103.6239184  38.4933653
  28.4811085 103.1920383  38.3111127  27.4849824 103.4521198  39.4210547
  27.3011373 100.1271298  39.8589992  27.2460177  99.9615569  38.9178436
  26.6757429 100.8347331  40.0152182  12.0903888  95.3639362  53.6851414
  12.7362752  94.8538316  54.1738639  11.8821039  96.1008044  54.2594839
  24.6157280 102.4320210  59.1843555  25.4848440 102.6060862  58.8230190
  24.1364032 103.2514626  59.0619284  20.6107499  89.6279407  39.4375310
  20.5986169  90.5721247  39.5943581  21.5030921  89.4449552  39.1434771
  18.7843461 109.5517311  50.8632988  19.6870707 109.5840921  51.1799483
  18.5580831 108.6217762  50.8779324  20.5397063 108.3048297  47.5243067
  19.5892694 108.3050159  47.4107439  20.8429549 107.5581032  47.0079102
  24.4259618  86.2222183  43.6921247  23.6592014  85.6680670  43.8377929
  24.8370323  86.2944052  44.5535399  16.4301379  92.5106979  57.7826428
  17.2932841  92.1543784  57.9929753  15.8566790  92.1720874  58.4701833
  36.2749756 114.1408836  48.5888829  36.9128166 114.0215583  47.8852169
  36.1570599 115.0889680  48.6476781  33.0839462 114.0936264  48.5250354
  32.7457974 113.9777328  47.6370889  33.9529231 113.6927429  48.5051360
  30.7847742 112.8624511  37.8567294  31.0373263 112.3406032  37.0950757
  29.8472301 112.6990656  37.9593978  35.8291025 111.8660289  45.6642037
  36.6154114 111.4479713  45.3132454  36.0929729 112.7706382  45.8323686
  41.2299452 111.8035523  46.5675016  41.9624624 111.2334739  46.8012845
  40.4738808 111.4157123  47.0081521  32.8475572 114.2262764  43.7638358
  32.4833779 113.6993385  44.4751280  33.7042687 113.8361233  43.5904844
  38.7524872 105.5157097  51.0269624  38.4208197 106.3852508  50.8030839
  38.1570486 105.1993381  51.7063655  32.4881059 109.2552664  38.7599707
  32.6555461 110.1232900  39.1270178  32.2978228 109.4179946  37.8360996
  38.6453536 110.2352183  48.1062974  37.7370413 110.1667591  47.8121735
  38.5941131 110.7124128  48.9344800  32.4670279 111.7110321  39.7446374
  32.3469905 112.1567372  40.5831854  31.7722868 112.0595639  39.1859912
  32.7194401 111.6541828  56.0497872  31.9427735 112.2135749  56.0400736
  33.3584964 112.1398611  56.5712742  40.5115182 108.4368621  49.8840848
  39.8689562 108.7301154  49.2380643  40.0070110 108.3221542  50.6894045
  38.1655346 112.1831794  40.5726708  39.0773202 112.4159181  40.3974405
  37.6564993 112.7668839  40.0101786  32.8027183 111.5429029  51.5821557
  33.6488378 111.9668443  51.7256206  32.7425821 110.8862653  52.2760120
  35.9526629 109.2033397  53.2402731  35.7087560 109.9575458  52.7037007
  36.2286559 109.5818745  54.0749978  37.9065091 115.7472010  51.9179996
  38.1181987 116.3903770  51.2414377  37.8594840 114.9134326  51.4501926
  35.5091320 108.3589830  48.8216569  34.6475799 108.6571084  49.1133306
  35.5353755 108.5760229  47.8897601  31.2621776 113.0255173  42.0379939
  31.9645819 113.4776217  42.5053866  30.9302404 112.3838992  42.6659832
  29.7102137 111.6166930  56.4131149  29.0800798 112.2983211  56.6466546
  29.6038225 111.5050012  55.4684287  26.9561855 111.6483305  44.2980550
  26.1593018 111.7602000  44.8164045  26.7287447 111.9869958  43.4321440
  47.1116912 114.9682714  46.4387325  46.3580621 114.3990112  46.2831330
  47.2464454 114.9345378  47.3857960  28.9882880 105.9187696  58.7756400
  28.5949826 105.3653894  59.4504044  29.8049020 106.2298274  59.1662917
  31.9050841 107.3345575  56.3676656  32.6460554 107.9352728  56.2881119
  32.1368764 106.5923213  55.8094699  35.8508004 103.3626678  50.6440938
  35.5072273 104.2528320  50.5680049  36.2186967 103.1728336  49.7810523
  35.8158287 113.3535289  39.1513373  35.3004910 114.1239894  39.3901761
  35.5435595 112.6800425  39.7746435  33.4005398 108.1984990  44.2098612
  32.5446994 107.8091840  44.0304250  33.8132350 108.2776951  43.3498397
  34.9304544 105.7331333  48.6090171  34.4269340 105.6961468  47.7957977
  35.2235151 106.6424076  48.6686828  31.1747430 105.8170063  47.6156353
  32.0400427 105.6212871  47.2562243  31.2424939 105.5880415  48.5425710
  40.7892561 116.1067644  41.0866547  40.0122004 115.7678803  40.6421709
  41.4684042 116.1120267  40.4121512  35.6044590 111.2262381  40.9773154
  35.2994725 111.5408530  41.8283298  36.5575032 111.3043801  41.0200487
  39.0283868 115.5801625  47.7433155  38.3707542 116.2700886  47.8313283
  39.8324267 115.9698057  48.0867141  28.7809749 108.0472271  44.9872720
  29.3553501 107.8247452  44.2545913  29.3680732 108.1160965  45.7401321
  37.8389327 113.9345998  45.7937096  38.3521208 114.5675989  46.2958806
  38.4890550 113.3347193  45.4280456  29.1079336 110.0776732  39.0068605
  28.2716649 110.4151418  39.3277880  28.9684106 109.9425712  38.0695742
  31.0832417 104.9213520  43.7147789  30.4296829 104.6062537  43.0904404
  31.0412891 104.2989260  44.4407612  34.3170157 111.4095453  48.0395437
  33.3992719 111.6310400  47.8817125  34.7330301 111.4841764  47.1807144
  35.1005205 112.8086869  43.1698117  35.8477024 113.3208266  42.8605239
  35.3696795 112.4870922  44.0302511  37.5484042 109.8443985  45.1516906
  36.8106799 109.3321371  45.4827149  37.8010816 109.4044367  44.3400183
  37.6495670 102.6220237  45.7458676  37.9554546 101.7617601  45.4584591
  38.3748274 103.2137857  45.5457670  31.9216749 112.9174030  46.2534867
  31.9765359 111.9647867  46.1777343  31.1107951 113.0733469  46.7376165
  29.8609109 111.5351090  44.0125246  29.0476975 111.8345260  44.4190438
  30.3568103 111.1406779  44.7299728  35.4583321 111.9992914  52.8440140
  35.8132709 112.2264387  53.7034605  36.1055452 112.3311291  52.2217395
  41.1881058 115.1211350  43.5489469  41.0498957 115.3112946  42.6210658
  40.8317277 115.8830733  44.0057520  29.3523184 109.1069445  49.6286481
  29.9922563 108.9658205  48.9309444  28.5200715 108.8203959  49.2525083
  41.2150438 117.1887877  48.5600740  41.6486944 117.0963166  49.4083794
  41.9282018 117.1645378  47.9220756  26.3551800 109.0769770  44.4059467
  26.6158618 109.9915104  44.2968628  27.1768973 108.6094213  44.5556080
  27.8276726 110.4907528  51.5758292  28.4999779 110.2824890  50.9270941
  27.0006512 110.2929614  51.1363524  33.7302298 107.1169468  53.5923953
  33.0830213 107.8159418  53.4988429  34.5003313 107.5505612  53.9600201
  30.8586524 113.4770090  51.8244409  31.5686142 112.8363282  51.7831027
  30.8155832 113.7282985  52.7470590  29.5715458 110.4635308  53.6440048
  29.0352815 110.0126046  54.2961645  28.9832166 110.5981217  52.9010513
  28.9817717 109.9223959  36.2066512  28.1047183 109.8012760  35.8428759
  29.4575470 109.1310037  35.9545401  25.3054579 109.5991315  50.7293043
  25.2212768 108.9916985  49.9943453  24.4837285 110.0900334  50.7302539
  35.4778293 108.0844879  46.0963238  35.9746992 107.3314841  45.7764308
  34.7065274 108.1209196  45.5306447  43.3308050 113.7885245  47.7381529
  43.3197926 114.6709960  47.3675462  42.4625430 113.4356795  47.5436066
  32.0613262 110.2262262  45.8234922  31.6911049 109.6733302  46.5115828
  32.5572354 109.6220395  45.2709922  39.9480625 112.6833885  44.2051695
  40.4141077 113.5161877  44.1311998  40.3988125 112.2178867  44.9096954
  37.9197288 105.0514472  48.2442597  37.0060367 105.2818699  48.4124804
  38.3490389 105.1352917  49.0956629  37.6903746 113.2404364  50.7442491
  37.0375196 113.4880272  50.0894943  38.0684126 112.4268503  50.4104968
  33.7391319 113.9824175  57.2308528  33.0631956 113.8818305  57.9010903
  34.5618953 113.8263389  57.6944525  27.4578595 107.6366253  52.0688028
  27.5219922 108.4981084  51.6565426  27.3945715 107.0240254  51.3360387
  26.9330868 109.7089385  55.7161063  27.5602907 109.3266463  56.3298587
  26.0758787 109.4903587  56.0816755  27.2390658 109.5921811  47.6306966
  26.5177243 110.2057779  47.4914439  28.0283913 110.1279576  47.5523612
  30.0416971 106.9276237  53.9047618  30.5651373 107.1738534  54.6673927
  29.8229304 107.7596272  53.4850755  25.4384252 109.1979912  41.7718743
  25.1096958 108.3177291  41.5893849  25.7923623 109.1427581  42.6595132
  28.5526075 109.4852882  42.1394220  28.8922148 110.0138803  41.4172829
  28.9998196 109.8233288  42.9152787  31.2469516 107.8689933  51.5897288
  30.9066336 107.0697746  51.9917968  30.5408522 108.1691643  51.0174122
  31.8985988 104.9539245  50.0424611  32.7212057 104.4799723  49.9203502
  32.1424051 105.7329729  50.5423298  30.5394222 107.9827503  40.3387513
  31.2602585 108.3608756  39.8351230  29.9159527 108.7016380  40.4422491
  34.6825345 108.6872652  41.2745845  34.8988960 109.5697290  40.9734674
  34.2019412 108.2958866  40.5451487  29.4224567 111.6458366  47.8516590
  29.2769147 111.9598669  48.7440872  28.9449770 112.2643266  47.2987489
  31.2820950 108.6360914  47.8997480  31.2682518 107.7402007  47.5629778
  31.9993378 108.6431577  48.5335766  33.1347080 109.0698254  49.9450607
  32.8764858 109.9915324  49.9434937  32.6032121 108.6728688  50.6351071
  30.6857845 107.5175294  43.1685050  30.8073757 106.5891940  43.3675937
  30.3959888 107.5313980  42.2563365  33.5549036 105.2030204  46.3051770
  33.5770733 105.2669537  45.3503749  33.9717095 104.3634713  46.4992276
  43.9332660 114.9385464  44.3430992  44.3763806 114.1892789  43.9450115
  43.0559170 114.9295600  43.9604724  30.1698925 109.0307291  57.3774982
  30.2187080 109.9069414  56.9952752  30.7121439 108.4884684  56.8046626
  40.7751646 116.4240881  53.9708848  40.8249651 116.2590888  54.9124371
  40.6665569 115.5568140  53.5806729  38.0655408 112.4071809  55.2868155
  38.9665271 112.2678274  54.9952152  38.1403383 112.5726264  56.2266332
  32.3998213 109.7838664  54.1321341  31.5301523 110.0772230  53.8603930
  32.6357694 110.3679109  54.8528605  43.4765525 116.4090702  46.7353440
  44.3112416 116.8480506  46.8991000  43.6124654 115.9329355  45.9161686
  40.5257031 113.9670437  52.6830928  41.0011152 114.1598083  51.8749779
  39.6022596 114.0229623  52.4374311  35.1037247 106.0018281  51.6486761
  35.6219191 106.7379308  51.3233250  34.7492380 106.3082274  52.4833521
  26.6836185 110.8622962  39.7648167  25.9905430 110.9367317  39.1088203
  26.4387937 110.0983305  40.2869684  35.3549841 102.4218563  47.1687658
  35.6351595 101.7541752  47.7948085  36.1400448 102.6147659  46.6562322
  39.2258700 110.8436197  50.9159233  40.1776123 110.9434295  50.9371457
  39.0562150 110.0514466  51.4257317  37.2473079 107.9291780  51.1018634
  36.6523011 108.2096793  50.4065123  36.9622776 108.4185681  51.8735375
  41.7046778 114.0642317  50.0301533  41.6723098 113.1258318  50.2161217
  42.3147401 114.1426354  49.2967358  33.5430108 112.9338370  36.0728737
  34.4889213 112.8044578  36.1417155  33.1644353 112.1953032  36.5498165
  41.8541266 110.8553360  50.0759816  41.3380315 110.0711817  49.8889745
  42.7381215 110.5272077  50.2406335  39.5151993 104.5994376  46.0355629
  39.3176814 104.2909464  46.9198961  40.1251699 105.3256015  46.1653558
  47.5223327 115.1258324  49.1707570  48.2526716 114.8643612  49.7315273
  46.9130273 114.3887046  49.2109638  45.6038625 113.2666186  49.7682021
  44.8771788 113.1322151  49.1598512  45.1885911 113.5743015  50.5738739
  31.7273026 110.8588346  36.0083622  30.8204481 110.5621459  36.0846336
  32.0049007 110.5618164  35.1417908  33.3435091 105.4025236  42.1627863
  32.5335820 105.0572321  42.5383109  34.0319508 105.0932780  42.7515475
  35.2725640 104.4803283  43.7852160  35.8256678 104.8998736  44.4442183
  35.5095726 103.5539031  43.8275116  31.2958739 110.4690356  59.5654924
  31.1955466 111.4184713  59.4967015  31.0780281 110.1408595  58.6930994
  30.4971810 107.7175281  36.1495601  31.3590974 108.0430180  36.4091419
  30.6822154 106.9306777  35.6368667  38.6504447 106.5903808  43.2930824
  38.0703116 107.2488612  42.9108877  38.3840379 105.7681152  42.8818242
  37.1008013 105.9908866  45.4952145  37.6007791 106.1025400  44.6866463
  37.7443621 105.6869918  46.1352953  37.4329325 108.7503898  42.3487173
  36.5455180 109.0353549  42.1307367  37.8483314 108.5897662  41.5014449
  40.7843861 108.7750419  46.0641512  41.5604251 109.2646872  46.3366129
  40.0591995 109.2008473  46.5213381  43.2216419 109.4878038  47.1215452
  43.8160910 109.2473774  46.4108761  43.2943003 108.7685169  47.7488989
  37.4070348 114.2658434  42.5637463  37.3505550 114.7226986  41.7245095
  37.9598691 113.5049119  42.3860305  41.2175154 110.0548166  43.3887582
  40.9612089 109.6544802  44.2195790  40.5928022 110.7691960  43.2637721
  45.5287492 112.7944239  45.8958874  44.9687050 112.8637429  46.6690436
  44.9230996 112.6185224  45.1758370  38.1405128 115.4563215  39.8589992
  38.0853932 115.2907487  38.9178436  37.5151183 116.1639248  40.0152182
  31.4501253 104.9571324  39.4375310  31.4379923 105.9013164  39.5943581
  32.3424675 104.7741470  39.1434771  35.2653373 101.5514101  43.6921247
  34.4985769 100.9972588  43.8377929  35.6764078 101.6235970  44.5535399
  27.2695134 107.8398897  57.7826428  28.1326595 107.4835702  57.9929753
  26.6960544 107.5012792  58.4701833  48.4889424 117.9512155  45.7458676
  48.7948301 117.0909518  45.4584591  49.2142029 118.5429775  45.5457670
  46.1943596 117.7510481  47.1687658  46.4745350 117.0833670  47.7948085
  46.9794203 117.9439576  46.6562322  50.3545747 119.9286294  46.0355629
  50.1570569 119.6201382  46.9198961  50.9645453 120.6547932  46.1653558
  46.1047127 116.8806019  43.6921247  45.3379523 116.3264505  43.8377929
  46.5157832 116.9527888  44.5535399   3.7541896  30.6577166  33.1632632
   3.0005604  30.0884564  33.0076636   3.8889437  30.6239830  34.1103267
   4.1648311  30.8152776  35.8952876   4.8951699  30.5538064  36.4560580
   3.5555256  30.0781498  35.9354944   2.2463608  28.9560638  36.4927327
   1.5196771  28.8216603  35.8843819   1.8310895  29.2637467  37.2984045
   2.1712476  28.4838691  32.6204180   1.6112034  28.5531881  33.3935742
   1.5655979  28.3079676  31.9003676   3.7568494  45.1595205  35.3134136
   4.3946904  45.0401952  34.6097476   3.6389337  46.1076049  35.3722088
   1.0477983  46.2657485  41.2081866   1.0366624  45.8710283  40.3362370
   1.2098623  45.5323558  41.8015638   2.0044575  50.6329077  26.5507016
   1.3532554  51.2183158  26.1641030   2.7988937  51.1635272  26.6102054
   3.3109762  42.8846659  32.3887344   4.0972852  42.4666082  32.0377761
   3.5748467  43.7892751  32.5568992   3.4819840  48.3219509  27.0876001
   2.8465673  48.3954136  27.7996905   3.1517246  48.9113108  26.4095080
   8.7118190  42.8221892  33.2920322   9.4443362  42.2521109  33.5258152
   7.9557545  42.4343493  33.7326828   6.2343610  36.5343466  37.7514931
   5.9026935  37.4038877  37.5276146   5.6389223  36.2179750  38.4308961
   2.7275129  48.7356012  37.1510844   2.4275853  49.6381051  37.0426651
   2.3826189  48.4688195  38.0031997   6.1272273  41.2538552  34.8308281
   5.2189151  41.1853961  34.5367042   6.0759869  41.7310497  35.6590107
   7.9933920  39.4554991  36.6086155   7.3508300  39.7487524  35.9625950
   7.4888848  39.3407911  37.4139352   5.6474083  43.2018164  27.2972014
   6.5591939  43.4345551  27.1219712   5.1383730  43.7855208  26.7347093
   3.9314851  47.6242792  40.9333307   4.3398207  47.1825202  40.1887939
   3.2092113  47.0495419  41.1867500   4.2543666  48.1843982  34.6885596
   3.6252528  48.3489697  33.9861664   3.8669328  48.5985592  35.4596560
   8.1332898  49.1198420  32.0429960   7.4483936  49.4997322  31.4926993
   8.2176747  49.7293747  32.7761907   3.4345366  40.2219767  39.9648037
   3.1906298  40.9761828  39.4282313   3.7105297  40.6005115  40.7995285
   5.3883829  46.7658379  38.6425303   5.6000724  47.4090139  37.9659684
   5.3413577  45.9320696  38.1747233   2.9910058  39.3776200  35.5461875
   2.1294537  39.6757454  35.8378613   3.0172493  39.5946599  34.6142908
   6.5029657  49.6430335  36.8147660   7.3247101  49.2410522  36.5330342
   6.4992060  49.5398569  37.7663776  14.5935650  45.9869083  33.1632632
  13.8399359  45.4176481  33.0076636  14.7283191  45.9531748  34.1103267
   1.6102755  51.4806052  42.9687693   1.1666609  50.6942431  42.6508598
   2.2719968  51.6685203  42.3031584   3.7083993  51.7608852  40.9969095
   3.6902468  52.5817733  40.5049364   4.6303913  51.6362927  41.2219236
   3.3326742  34.3813047  37.3686245   2.9891011  35.2714689  37.2925355
   3.7005704  34.1914705  36.5055830   3.2977024  44.3721659  25.8758680
   2.7823648  45.1426263  26.1147067   3.0254333  43.6986795  26.4991741
   2.4123282  36.7517703  35.3335478   1.9088078  36.7147838  34.5203283
   2.7053889  37.6610445  35.3932135   8.2711299  47.1254013  27.8111853
   7.4940741  46.7865173  27.3667015   8.9502780  47.1306636  27.1366818
   3.0863328  42.2448751  27.7018461   2.7813463  42.5594900  28.5528604
   4.0393770  42.3230171  27.7445794   1.5309760  48.4038974  29.3511415
   1.0031121  47.6691734  29.0384652   1.0297262  49.1813650  29.1051383
   6.5102606  46.5987994  34.4678461   5.8526280  47.2887256  34.5558590
   7.3143005  46.9884426  34.8112448   5.3208064  44.9532367  32.5182403
   5.8339946  45.5862359  33.0204113   5.9709288  44.3533563  32.1525763
   2.5830439  54.9316691  25.2743074   1.9092137  55.2348388  25.8828032
   2.9696261  55.7345772  24.9248531   1.7988895  42.4281823  34.7640744
   0.8811457  42.6496770  34.6062432   2.2149039  42.5028133  33.9052451
   2.5823943  43.8273238  29.8943424   3.3295762  44.3394636  29.5850546
   2.8515533  43.5057291  30.7547817   6.0869861  49.9338369  30.6461546
   5.6332188  49.0929278  30.7026736   5.4563827  50.5699767  30.9836326
   5.0302780  40.8630355  31.8762213   4.2925537  40.3507741  32.2072456
   5.2829554  40.4230736  31.0645490   4.5302800  51.7714865  31.5811364
   4.8225774  52.3319922  30.8623729   5.0401420  52.0643426  32.3364523
   5.1314407  33.6406607  32.4703982   5.4373284  32.7803970  32.1829897
   5.8567012  34.2324227  32.2702976   2.9402059  43.0179284  39.5685446
   3.2951446  43.2450757  40.4279912   3.5874190  43.3497661  38.9462702
   8.6699796  46.1397720  30.2734775   8.5317694  46.3299316  29.3455964
   8.3136015  46.9017103  30.7302826   8.6969175  48.2074247  35.2846047
   9.1305682  48.1149536  36.1329101   9.4100756  48.1831747  34.6466063
   2.4297070  51.8076341  36.8179147   2.4834093  52.3767277  37.5856863
   1.5611852  51.9778226  36.4533184   9.5584725  48.2497947  37.8178932
   9.7520615  49.1543758  38.0638207   9.4585343  47.7905367  38.6517517
   1.2121036  38.1355838  40.3169259   0.5648951  38.8345788  40.2233736
   1.9822051  38.5691982  40.6845508   4.6199834  48.4004690  43.3919813
   4.4685340  48.1715242  42.4749896   4.6104513  49.3575292  43.4051158
   1.3885170  45.9736603  38.3766079   2.3177230  46.1247763  38.2035047
   0.9676200  46.0620624  37.5214726   1.7378717  49.3768870  33.5353455
   1.4028550  49.3369640  34.4311104   1.2382663  48.7113586  33.0623865
   4.6737909  46.7224904  23.8090514   4.0567079  45.9971733  23.7123567
   4.2054397  47.4834265  23.4657589   6.3292040  51.4323813  41.4696295
   6.2704586  50.7483033  40.8026878   6.7311559  52.1742803  41.0176921
   6.3309447  49.3963397  39.7010274   5.4436226  49.0589319  39.8236673
   6.9007999  48.6646428  39.9379040   2.9597031  39.1031249  32.8208544
   3.4565730  38.3501211  32.5009615   2.1884012  39.1395565  32.2551754
  10.8126788  44.8071614  34.4626836  10.8016664  45.6896330  34.0920769
   9.9444167  44.4543165  34.2681373   2.3209284  53.9551683  38.8229676
   3.0337257  54.5899148  38.7505578   1.8299313  54.0515549  38.0069678
   4.0426811  47.8602936  30.3946968   3.1083090  47.9804398  30.2251672
   4.2203480  46.9575403  30.1306978   7.4299363  43.7020255  30.9297002
   7.8959815  44.5348247  30.8557305   7.8806863  43.2365237  31.6342260
   5.4975594  50.0464076  27.9283154   5.7735438  49.9320671  28.8377028
   4.6280092  49.6481561  27.8895327   5.4016025  36.0700842  34.9687903
   4.4879105  36.3005069  35.1370110   5.8309127  36.1539286  35.8201936
   5.1722484  44.2590734  37.4687797   4.5193934  44.5066641  36.8140250
   5.5502864  43.4454872  37.1350275   2.1329658  54.2950427  31.5715968
   2.3152052  53.4772083  32.0343720   2.9562644  54.5118119  31.1340858
   2.4671823  53.2218612  28.8331016   2.9959590  52.7111067  28.2201178
   2.7300043  52.9061143  29.6976549   1.2210057  45.0010545  43.9553834
   0.5450694  44.9004674  44.6256210   2.0437691  44.8449759  44.4189832
   4.8143714  51.1338730  44.0460105   5.3583618  51.7468688  43.5515060
   4.2330559  51.6918308  44.5627118   3.1001227  54.2559448  35.1775133
   2.9752367  53.4549188  34.6686078   3.7580318  54.7505641  34.6889103
   5.1636135  52.0568468  36.8054683   4.2166471  51.9373819  36.7333009
   5.5118909  51.1690966  36.8880944   2.1682569  51.8521184  33.0059035
   2.0207531  50.9237892  33.1866605   2.9936062  51.8741275  32.5216110
   5.7716691  52.6749743  34.0923908   6.6963238  52.4692604  33.9548359
   5.6031994  52.4266144  35.0013249   2.1644083  39.7059022  27.9991152
   2.3807697  40.5883660  27.6979980   1.6838150  39.3145235  27.2696794
   5.5612007  53.1935411  29.4485999   5.7348884  52.6281833  28.6959852
   6.0540898  53.9936305  29.2665489   1.0367774  36.2216574  33.0297076
   1.0589470  36.2855907  32.0749056   1.4535833  35.3821083  33.2237582
  11.4151398  45.9571833  31.0676299  11.8582544  45.2079159  30.6695422
  10.5377908  45.9481970  30.6850031   6.5487179  52.5102175  26.5482897
   7.2438084  53.1308868  26.7670212   6.8910329  51.6597526  26.8235275
   8.4478602  49.9601880  28.0770228   8.9729927  50.2989153  27.3519548
   8.3600955  49.0248896  27.8933363   8.1372508  50.5934784  43.3821426
   7.3468052  50.5758923  42.8425926   7.9005863  51.1323078  44.1370463
   8.2570384  47.4427250  40.6954155   8.3068388  47.2777258  41.6369677
   8.1484307  46.5754509  40.3052035   5.5474146  43.4258178  42.0113461
   6.4484009  43.2864643  41.7197459   5.6222120  43.5912633  42.9511639
   9.7588580  49.8624192  40.9396176   9.4673389  50.2254173  41.7759637
   9.1460712  49.1491200  40.7609508  10.9584263  47.4277072  33.4598746
  11.7931154  47.8666876  33.6236307  11.0943391  46.9515725  32.6406992
   8.0075769  44.9856807  39.4076234   8.4829890  45.1784453  38.5995086
   7.0841334  45.0415992  39.1619618   2.5855985  37.0204650  38.3732068
   3.1037929  37.7565677  38.0478557   2.2311118  37.3268643  39.2078827
   2.8368579  33.4404933  33.8932965   3.1170333  32.7728122  34.5193391
   3.6219186  33.6334028  33.3807628   6.7077438  41.8622567  37.6404540
   7.6594860  41.9620664  37.6616764   6.5380888  41.0700835  38.1502624
   4.7291817  38.9478150  37.8263941   4.1341749  39.2283163  37.1310429
   4.4441514  39.4372051  38.5980682   3.8599308  52.9001077  26.5866573
   4.7929981  52.8346638  26.7899449   3.7722520  53.7357344  26.1281106
   6.4887324  52.2166947  23.5470521   6.4100956  51.8826811  24.4406279
   7.3096991  52.7088715  23.5461993   9.1865515  45.0828686  36.7546839
   9.1541835  44.1444687  36.9406523   9.7966139  45.1612723  36.0212664
   1.0248846  43.9524739  22.7974043   1.9707951  43.8230947  22.8662461
   0.6463091  43.2139401  23.2743472   9.3360004  41.8739730  36.8005123
   8.8199053  41.0898186  36.6135051  10.2199952  41.5458446  36.9651642
   6.9970731  35.6180745  32.7600935   6.7995552  35.3095834  33.6444267
   7.6070436  36.3442384  32.8898865  15.0042065  46.1444693  35.8952876
  15.7345454  45.8829981  36.4560580  14.3949011  45.4073415  35.9354944
  13.0857362  44.2852556  36.4927327  12.3590526  44.1508521  35.8843819
  12.6704649  44.5929384  37.2984045   0.9087539  48.0042485  44.2574700
   1.8290548  48.1821085  44.4514747   0.8737122  47.0598531  44.1054400
   2.7544377  35.4989652  30.5097467   3.3075416  35.9185106  31.1687490
   2.9914464  34.5725400  30.5520423   6.1323184  37.6090177  30.0176131
   5.5521854  38.2674981  29.6354183   5.8659117  36.7867522  29.6063548
   4.5826751  37.0095235  32.2197451   5.0826529  37.1211770  31.4111770
   5.2262359  36.7056288  32.8598260   4.9148063  39.7690268  29.0732479
   4.0273918  40.0539918  28.8552674   5.3302052  39.6084031  28.2259756
   8.2662599  39.7936789  32.7886818   9.0422989  40.2833241  33.0611435
   7.5410733  40.2194843  33.2458688  10.7035157  40.5064408  33.8460759
  11.2979648  40.2660144  33.1354067  10.7761741  39.7871539  34.4734295
   4.0591276  49.5334942  23.1680499   4.7627126  49.7384945  23.7838155
   3.3353925  50.1011704  23.4329583   4.8889086  45.2844804  29.2882769
   4.8324288  45.7413355  28.4490402   5.4417429  44.5235488  29.1105612
   8.6993892  41.0734536  30.1132889   8.4430826  40.6731171  30.9441096
   8.0746760  41.7878330  29.9883028  13.0106230  43.8130609  32.6204180
  12.4505788  43.8823798  33.3935742  12.4049733  43.6371593  31.9003676
   5.9677973  49.9717472  25.2178959   6.8023577  49.5398670  25.0356434
   5.8062316  49.7999485  26.1455854   5.6223866  46.4749585  26.5835298
   5.5672669  46.3093856  25.6423743   4.9969921  47.1825618  26.7397488
   2.9369773  48.7798497  45.9088861   3.8060932  48.9539149  45.5475496
   2.4576524  49.5992914  45.7864591   2.7472110  32.5700471  30.4166554
   1.9804506  32.0158957  30.5623236   3.1582815  32.6422339  31.2780705
  14.5962248  60.4887123  35.3134136  15.2340658  60.3693870  34.6097476
  14.4783091  61.4367967  35.3722088  11.4051955  60.4414551  35.2495661
  11.0670466  60.3255616  34.3616195  12.2741723  60.0405716  35.2296667
   7.2638770  62.2950027  31.2392552   6.7003636  62.2039964  30.4708839
   7.1491166  61.4749932  31.7195044  11.8871738  61.5949403  41.2081866
  11.8760379  61.2002201  40.3362370  12.0492377  60.8615475  41.8015638
   4.8103202  63.7901219  34.0776772   5.6024494  63.4492044  33.6623071
   5.0499853  63.8996194  34.9978925  12.8438329  65.9620995  26.5507016
  12.1926309  66.5475075  26.1641030  13.6382692  66.4927190  26.6102054
   6.7693956  63.0510132  26.9494151   7.5424832  62.5039119  26.8107027
   7.1219355  63.9154381  27.1608612   8.6078999  64.3786514  40.1561050
   8.3168865  65.2832145  40.0407716   9.2435983  64.4203042  40.8705120
   9.5335206  61.7563363  36.7462410  10.1298778  61.5319385  36.0319373
   9.5910177  61.0148108  37.3487858   9.1060234  59.2102798  24.5812601
   9.3585755  58.6884320  23.8196064   8.1684793  59.0468944  24.6839284
  14.1503517  58.2138577  32.3887344  14.9366606  57.7958000  32.0377761
  14.4142221  59.1184669  32.5568992  14.3213594  63.6511427  27.0876001
  13.6859427  63.7246053  27.7996905  13.9911001  64.2405026  26.4095080
  19.5511944  58.1513810  33.2920322  20.2837116  57.5813027  33.5258152
  18.7951300  57.7635410  33.7326828   8.8256523  61.1130904  26.7836976
   8.7092781  60.4375808  27.4518060   8.9358783  60.6263278  25.9669129
  11.1688064  60.5741051  30.4883665  10.8046271  60.0471672  31.1996586
  12.0255180  60.1839520  30.3150150  17.0737364  51.8635384  37.7514931
  16.7420689  52.7330795  37.5276146  16.4782978  51.5471668  38.4308961
  10.8093551  55.6030951  25.4845013  10.9767953  56.4711187  25.8515484
  10.6190720  55.7658233  24.5606303  13.5668884  64.0647930  37.1510844
  13.2669607  64.9672969  37.0426651  13.2219943  63.7980113  38.0031997
   7.0181365  60.5161727  33.1847548   6.0931862  60.3837941  33.3925240
   7.2665779  61.2955946  33.6817491  16.9666028  56.5830470  34.8308281
  16.0582905  56.5145879  34.5367042  16.9153624  57.0602415  35.6590107
  10.7882772  58.0588609  26.4691680  10.6682397  58.5045659  27.3077161
  10.0935360  58.4073926  25.9105218   4.3790176  60.1595000  34.0191337
   4.5082558  60.4129479  34.9330749   3.6987628  60.7522708  33.6995992
   8.5489664  70.8292250  30.1181812   8.4713693  71.7800075  30.1970292
   7.9451307  70.4838123  30.7756738  11.0406894  58.0020116  42.7743178
  10.2640228  58.5614036  42.7646043  11.6797457  58.4876899  43.2958049
  18.8327674  54.7846909  36.6086155  18.1902054  55.0779442  35.9625950
  18.3282603  54.6699829  37.4139352  16.4867838  58.5310082  27.2972014
  17.3985694  58.7637468  27.1219712  15.9777485  59.1147126  26.7347093
   9.2953266  60.8105569  42.3361145  10.0367950  61.3490613  42.0595969
   8.5890251  61.4371858  42.4932697  14.7708605  62.9534710  40.9333307
  15.1791962  62.5117120  40.1887939  14.0485867  62.3787337  41.1867500
  11.1239676  57.8907316  38.3066864  11.9700871  58.3146730  38.4501513
  11.0638313  57.2340941  39.0005427  15.0937420  63.5135900  34.6885596
  14.4646283  63.6781614  33.9861664  14.7063082  63.9277510  35.4596560
  18.9726652  64.4490338  32.0429960  18.2877690  64.8289239  31.4926993
  19.0570501  65.0585665  32.7761907  14.2739121  55.5511685  39.9648037
  14.0300053  56.3053745  39.4282313  14.5499051  55.9297032  40.7995285
  16.2277584  62.0950297  38.6425303  16.4394479  62.7382057  37.9659684
  16.1807332  61.2612614  38.1747233  13.8303813  54.7068118  35.5461875
  12.9688292  55.0049371  35.8378613  13.8566247  54.9238517  34.6142908
  10.6465382  63.2510308  31.9535681  11.1103728  63.5298011  31.1640303
  10.3822180  62.3493753  31.7708772   7.5389463  62.7981790  34.8915444
   8.1090820  63.2269058  34.2532929   8.1297575  62.5164375  35.5899630
   9.5834268  59.3733461  28.7625246  10.2858311  59.8254504  29.2299172
   9.2514897  58.7317279  29.3905139   8.0314630  57.9645217  43.1376455
   7.4013290  58.6461498  43.3711852   7.9250717  57.8528299  42.1929594
   3.3259602  57.6317013  34.0642380   2.5358656  57.8874542  33.5882490
   3.8170849  58.4465351  34.1694420  17.3423412  64.9722252  36.8147660
  18.1640855  64.5702440  36.5330342  17.3385814  64.8690487  37.7663776
   5.2774347  57.9961593  31.0225856   4.4805511  58.1080287  31.5409352
   5.0499940  58.3348245  30.1566747  11.1080015  64.5206296  38.9708371
  11.1724448  64.9826703  39.8066543  10.3990939  63.8903661  39.0990681
   1.6097305  57.8847504  36.4957370   1.8605343  58.7694514  36.7614946
   2.1456853  57.7052105  35.7232462  25.4329405  61.3161001  33.1632632
  24.6793113  60.7468399  33.0076636  25.5676946  61.2823665  34.1103267
  10.8228033  66.1874403  28.8387351  10.6873707  67.0325939  29.2672199
  11.3637845  66.3893681  28.0753285   7.3095372  52.2665983  45.5001706
   6.9162318  51.7132182  46.1749351   8.1261513  52.5776562  45.8908224
   4.2757430  63.7049841  29.4115276   4.7881951  64.4993092  29.5620841
   4.9280143  63.0076132  29.3448878   6.0852315  66.8215598  31.4938029
   6.2618943  67.7433562  31.3059013   6.8809148  66.5074017  31.9232409
  10.2263333  53.6823862  43.0921963  10.9673047  54.2831015  43.0126425
  10.4581256  52.9401500  42.5340006   5.3704671  58.8680229  41.3700193
   5.2558186  57.9665487  41.6707292   4.5149189  59.1143926  41.0185009
  12.4496509  66.8097970  42.9687693  12.0060363  66.0234348  42.6508598
  13.1113723  66.9977120  42.3031584   7.2083630  68.3393771  37.4948372
   7.7591055  68.2110835  36.7225366   6.3695106  68.6388660  37.1443265
  14.5477747  67.0900770  40.9969095  14.5296222  67.9109651  40.5049364
  15.4697667  66.9654845  41.2219236  11.0050801  64.6044899  41.8392603
  11.5379138  63.8433187  41.6091911  10.4764882  64.3118551  42.5816757
  14.1720496  49.7104965  37.3686245  13.8284766  50.6006607  37.2925355
  14.5399459  49.5206623  36.5055830   2.2406347  62.0338496  30.1874847
   3.0781569  62.4435504  29.9708555   2.4184615  61.0937938  30.1575041
  14.1370779  59.7013576  25.8758680  13.6217402  60.4718181  26.1147067
  13.8648087  59.0278712  26.4991741  11.7217890  54.5463277  30.9343918
  10.8659486  54.1570127  30.7549557  12.1344842  54.6255238  30.0743704
  13.2517037  52.0809620  35.3335478  12.7481832  52.0439755  34.5203283
  13.5447644  52.9902363  35.3932135   9.4959923  52.1648350  34.3401660
  10.3612919  51.9691159  33.9807549   9.5637431  51.9358702  35.2671016
  19.1105053  62.4545931  27.8111853  18.3334496  62.1157090  27.3667015
  19.7896534  62.4598554  27.1366818  13.9257082  57.5740668  27.7018461
  13.6207218  57.8886818  28.5528604  14.8787524  57.6522088  27.7445794
  12.3703514  63.7330892  29.3511415  11.8424876  62.9983651  29.0384652
  11.8691017  64.5105568  29.1051383  17.3496360  61.9279912  34.4678461
  16.6920034  62.6179174  34.5558590  18.1536759  62.3176344  34.8112448
   7.1022242  54.3950558  31.7118026   7.6765994  54.1725739  30.9791219
   7.6893224  54.4639252  32.4646628  16.1601819  60.2824285  32.5182403
  16.6733701  60.9154277  33.0204113  16.8103043  59.6825480  32.1525763
   7.4291829  56.4255019  25.7313912   6.5929141  56.7629706  26.0523186
   7.2896598  56.2903999  24.7941049   9.4044909  51.2691807  30.4393096
   8.7509322  50.9540824  29.8149711   9.3625383  50.6467547  31.1652919
  10.5156114  61.5511102  22.3546388   9.6083176  61.3200355  22.5537537
  11.0127146  60.7548721  22.5420370  13.4224193  70.2608609  25.2743074
  12.7485892  70.5640306  25.8828032  13.8090015  71.0637689  24.9248531
  12.6382650  57.7573740  34.7640744  11.7205211  57.9788687  34.6062432
  13.0542793  57.8320051  33.9052451  13.4217697  59.1565156  29.8943424
  14.1689516  59.6686553  29.5850546  13.6909287  58.8349209  30.7547817
  11.6944348  61.6523697  26.8770378  10.7855567  61.3682730  26.9742848
  11.7239431  62.0722775  26.0173685  16.9263615  65.2630286  30.6461546
  16.4725942  64.4221196  30.7026736  16.2957582  65.8991685  30.9836326
  15.8696535  56.1922272  31.8762213  15.1319291  55.6799659  32.2072456
  16.1223308  55.7522654  31.0645490  15.3696554  67.1006783  31.5811364
  15.6619529  67.6611840  30.8623729  15.8795175  67.3935344  32.3364523
  15.9708162  48.9698524  32.4703982  16.2767039  48.1095888  32.1829897
  16.6960767  49.5616145  32.2702976   2.2632518  59.3729211  30.8585580
   2.0656918  58.7798572  30.1336647   1.7079182  59.0681421  31.5761519
  10.2429242  59.2652317  32.9780173  10.2977851  58.3126154  32.9022650
   9.4320444  59.4211756  33.4621472  11.3920435  63.1932440  24.2158457
  10.9539865  62.4768299  23.7564094  12.1330876  63.4208555  23.6543548
   8.1821602  57.8829377  30.7370552   7.3689467  58.1823548  31.1435744
   8.6780596  57.4885066  31.4545035  10.3330179  67.8787134  32.6704817
  10.2906358  68.1047980  31.7413349  11.2492878  67.6450509  32.8190618
  13.7795813  58.3471202  39.5685446  14.1345201  58.5742675  40.4279912
  14.4267944  58.6789578  38.9462702  19.5093550  61.4689637  30.2734775
  19.3711449  61.6591233  29.3455964  19.1529769  62.2309020  30.7302826
   7.6735676  55.4547733  36.3531787   8.3135056  55.3136492  35.6554751
   6.8413207  55.1682246  35.9770389  19.5362930  63.5366164  35.2846047
  19.9699436  63.4441454  36.1329101  20.2494511  63.5123665  34.6466063
   8.4495980  64.7550163  32.4666780   9.2436579  64.2600483  32.2649355
   7.7387673  64.2268026  32.1034485  13.2690825  67.1368259  36.8179147
  13.3227847  67.7059195  37.5856863  12.4005606  67.3070144  36.4533184
   4.7578744  58.8993245  28.5426532   3.8276332  58.8377700  28.7596495
   4.8536216  58.3769198  27.7463174   4.6764293  55.4248058  31.1304774
   4.9371110  56.3393391  31.0213935   5.4981465  54.9572500  31.2801387
   6.1489218  56.8385815  38.3003599   6.8212272  56.6303177  37.6516248
   5.3219005  56.6407901  37.8608831  20.3978479  63.5789865  37.8178932
  20.5914369  64.4835676  38.0638207  20.2979098  63.1197284  38.6517517
  12.0514790  53.4647756  40.3169259  11.4042705  54.1637705  40.2233736
  12.8215806  53.8983900  40.6845508  15.4593588  63.7296608  43.3919813
  15.3079094  63.5007160  42.4749896  15.4498268  64.6867209  43.4051158
  12.2278924  61.3028521  38.3766079  13.1570984  61.4539680  38.2035047
  11.8069954  61.3912541  37.5214726  11.0267256  65.3279185  36.1464617
  10.8878342  64.9597969  37.0190555  10.2381852  65.8426824  35.9748575
  11.6215408  70.4288282  27.4890153  11.7967164  69.9576325  28.3035776
  10.9348196  71.0554048  27.7171414  12.5772471  64.7060788  33.5353455
  12.2422304  64.6661558  34.4311104  12.0776417  64.0405504  33.0623865
   6.5516715  60.1128418  39.0606036   6.4136513  59.3808657  39.6617575
   7.4621639  60.0237318  38.7790224  15.5131663  62.0516822  23.8090514
  14.8960834  61.3263650  23.7123567  15.0448151  62.8126182  23.4657589
   9.1799016  59.8248377  38.5489715   9.8898635  59.1841569  38.5076334
   9.1368324  60.0761272  39.4715896  17.1685795  66.7615730  41.4696295
  17.1098341  66.0774951  40.8026878  17.5705313  67.5034720  41.0176921
   7.8927950  56.8113595  40.3685355   7.3565307  56.3604333  41.0206951
   7.3044658  56.9459504  39.6255819   6.1876493  73.5777644  34.2630014
   6.4273092  74.2096168  34.9409032   5.3445690  73.2265684  34.5495373
   7.3030209  56.2702246  22.9311819   6.4259675  56.1491047  22.5674065
   7.7787962  55.4788325  22.6790707  17.1703202  64.7255314  39.7010274
  16.2829981  64.3881236  39.8236673  17.7401753  63.9938346  39.9379040
   3.6267071  55.9469603  37.4538349   3.5425260  55.3395272  36.7188759
   2.8049778  56.4378621  37.4547846  10.7004355  69.3856767  36.6671518
  10.6274527  70.1911738  37.1790822  10.2581748  69.5848733  35.8419539
  10.4894135  68.6228537  30.1774339   9.7061657  69.1650217  30.2712564
  11.1886880  69.1402516  30.5768580  13.7990785  54.4323166  32.8208544
  14.2959485  53.6793129  32.5009615  13.0277767  54.4687483  32.2551754
  21.6520543  60.1363532  34.4626836  21.6410419  61.0188247  34.0920769
  20.7837922  59.7835083  34.2681373  13.1603039  69.2843601  38.8229676
  13.8731011  69.9191066  38.7505578  12.6693068  69.3807467  38.0069678
  14.8820566  63.1894853  30.3946968  13.9476845  63.3096316  30.2251672
  15.0597234  62.2867320  30.1306978  10.3825754  56.5740549  32.5480229
  10.0123541  56.0211590  33.2361135  10.8784846  55.9698683  31.9955229
  18.2693117  59.0312173  30.9297002  18.7353569  59.8640164  30.8557305
  18.7200618  58.5657154  31.6342260   8.2114952  67.0338044  39.6435247
   8.9124412  67.6674527  39.7964641   7.7410067  67.3752776  38.8830886
  16.3369348  65.3755994  27.9283154  16.6129192  65.2612589  28.8377028
  15.4673847  64.9773479  27.8895327  16.2409780  51.3992760  34.9687903
  15.3272860  51.6296987  35.1370110  16.6702881  51.4831204  35.8201936
  16.0116238  59.5882652  37.4687797  15.3587689  59.8358559  36.8140250
  16.3896618  58.7746790  37.1350275  12.9723412  69.6242345  31.5715968
  13.1545807  68.8064001  32.0343720  13.7956398  69.8410037  31.1340858
  13.3065578  68.5510530  28.8331016  13.8353344  68.0402985  28.2201178
  13.5693797  68.2353060  29.6976549  12.0603811  60.3302463  43.9553834
  11.3844448  60.2296592  44.6256210  12.8831445  60.1741676  44.4189832
   3.8082670  66.5674399  36.5766350   4.3936107  65.8218087  36.7094254
   3.6107509  66.8778356  37.4603014   6.6621326  69.6025647  31.5928792
   5.9931701  70.0871774  31.1092832   6.5234195  69.8494867  32.5072171
  10.8026594  71.6369390  38.1911450  11.3544902  71.8001012  38.9560536
  11.1432788  72.2273828  37.5191475   5.7791088  53.9844540  38.7933335
   5.8432414  54.8459371  38.3810733   5.7158208  53.3718542  38.0605694
   5.2543360  56.0567673  42.4406369   5.8815399  55.6744750  43.0543894
   4.3971279  55.8381874  42.8062062  15.6537469  66.4630648  44.0460105
  16.1977373  67.0760606  43.5515060  15.0724313  67.0210226  44.5627118
   2.0308903  57.8644102  28.3724724   2.3262344  56.9554780  28.3191778
   1.1296939  57.8431841  28.0505727  13.9394982  69.5851366  35.1775133
  13.8146121  68.7841106  34.6686078  14.5974073  70.0797559  34.6889103
   5.5603150  55.9400098  34.3552273   4.8389736  56.5536066  34.2159746
   6.3496406  56.4757863  34.2768919  16.0029890  67.3860386  36.8054683
  15.0560225  67.2665737  36.7333009  16.3512663  66.4982884  36.8880944
   8.3629463  53.2754525  40.6292925   8.8863865  53.5216821  41.3919234
   8.1441797  54.1074560  40.2096062   3.7596744  55.5458199  28.4964049
   3.4309451  54.6655578  28.3139155   4.1136115  55.4905868  29.3840439
  13.0076323  67.1813102  33.0059035  12.8601286  66.2529809  33.1866605
  13.8329817  67.2033193  32.5216110   6.8738568  55.8331169  28.8639527
   7.2134640  56.3617090  28.1418135   7.3210688  56.1711575  29.6398094
  16.6110445  68.0041661  34.0923908  17.5356993  67.7984522  33.9548359
  16.4425748  67.7558062  35.0013249   9.5682008  54.2168220  38.3142595
   9.2278829  53.4176033  38.7163275   8.8621015  54.5169931  37.7419428
  10.2198480  51.3017532  36.7669918  11.0424549  50.8278010  36.6448808
  10.4636544  52.0808016  37.2668604   8.8606715  54.3305791  27.0632820
   9.5815077  54.7087043  26.5596537   8.2372019  55.0494668  27.1667798
  13.0037838  55.0350940  27.9991152  13.2201452  55.9175578  27.6979980
  12.5231905  54.6437153  27.2696794   7.7437059  57.9936653  34.5761897
   7.5981640  58.3076956  35.4686178   7.2662263  58.6121553  34.0232795
   9.6033442  54.9839201  34.6242786   9.5895011  54.0880294  34.2875084
  10.3205870  54.9909865  35.2581072  11.4559573  55.4176541  36.6695914
  11.1977350  56.3393612  36.6680244  10.9244613  55.0206976  37.3596378
  16.4005761  68.5227328  29.4485999  16.5742639  67.9573751  28.6959852
  16.8934653  69.3228223  29.2665489   2.2182721  60.5341997  37.5149558
   1.6736189  61.3101805  37.6469832   3.0962071  60.8812802  37.3568679
   9.0070338  53.8653581  29.8930356   9.1286249  52.9370227  30.0921244
   8.7172380  53.8792267  28.9808672  11.8761528  51.5508492  33.0297076
  11.8983225  51.6147825  32.0749056  12.2929587  50.7113000  33.2237582
  22.2545152  61.2863751  31.0676299  22.6976299  60.5371076  30.6695422
  21.3771663  61.2773888  30.6850031  17.3880934  67.8394093  26.5482897
  18.0831838  68.4600785  26.7670212  17.7304084  66.9889444  26.8235275
   3.0048743  59.6611894  40.4079715   2.2630479  59.8094529  40.9944345
   2.6841487  59.9220159  39.5446464  19.2872357  65.2893798  28.0770228
  19.8123681  65.6281071  27.3519548  19.1994709  64.3540813  27.8933363
  10.9492406  69.2027872  40.2060105  11.2579532  68.9577019  41.0782804
  11.7467888  69.4074510  39.7178975  10.9713018  71.3565781  32.4365481
  10.5318008  70.8642160  33.1298338  11.7221135  70.8138749  32.1957557
   3.4505357  67.5477322  32.4390109   4.2763377  67.2481094  32.0588753
   3.0999409  66.7784945  32.8879898   8.4186890  66.9003791  34.5087783
   7.7966899  66.2374496  34.2090011   9.0891757  66.9264922  33.8261431
   1.6513962  65.4663649  33.3979043   0.8145870  65.0385823  33.2163044
   1.6237607  65.6596092  34.3349834   8.4911417  55.3785579  44.1020289
   8.5399573  56.2547701  43.7198059   9.0333932  54.8362972  43.5291932
  18.9766263  65.9226702  43.3821426  18.1861807  65.9050841  42.8425926
  18.7399618  66.4614995  44.1370463  19.0964138  62.7719168  40.6954155
  19.1462143  62.6069176  41.6369677  18.9878061  61.9046427  40.3052035
   7.9800397  65.4507714  27.9846244   8.1288517  66.1343178  27.3312916
   8.7866840  65.4312804  28.4995699  16.3867900  58.7550096  42.0113461
  17.2877763  58.6156561  41.7197459  16.4615875  58.9204551  42.9511639
  10.7210706  56.1316951  40.8566648   9.8514015  56.4250517  40.5849236
  10.9570186  56.7157396  41.5773911  20.5982335  65.1916110  40.9396176
  20.3067143  65.5546090  41.7759637  19.9854466  64.4783118  40.7609508
  21.7978017  62.7568989  33.4598746  22.6324909  63.1958794  33.6236307
  21.9337146  62.2807643  32.6406992  18.8469523  60.3148724  39.4076234
  19.3223645  60.5076371  38.5995086  17.9235088  60.3707910  39.1619618
   5.7353030  61.4772891  28.9907312   5.4899072  60.5735221  29.1887523
   5.9048944  61.4790042  28.0486790  13.4249740  52.3496568  38.3732068
  13.9431683  53.0857595  38.0478557  13.0704872  52.6560561  39.2078827
   5.0048677  57.2101249  26.4893474   4.3117922  57.2845604  25.8333510
   4.7600429  56.4461593  27.0114991  13.6762334  48.7696850  33.8932965
  13.9564088  48.1020039  34.5193391  14.4612941  48.9625946  33.3807628
  11.4795802  67.9455844  25.4557991  10.9069769  68.5646031  25.0028463
  12.0528596  68.4955206  25.9897913  17.5471192  57.1914484  37.6404540
  18.4988615  57.2912582  37.6616764  17.3774643  56.3992753  38.1502624
  15.5685572  54.2770068  37.8263941  14.9735504  54.5575080  37.1310429
  15.2835268  54.7663969  38.5980682  14.6993062  68.2292994  26.5866573
  15.6323735  68.1638556  26.7899449  14.6116275  69.0649261  26.1281106
  17.3281079  67.5458865  23.5470521  17.2494710  67.2118728  24.4406279
  18.1490745  68.0380633  23.5461993  20.0259270  60.4120604  36.7546839
  19.9935590  59.4736605  36.9406523  20.6359894  60.4904641  36.0212664
  11.8642601  59.2816657  22.7974043  12.8101705  59.1522865  22.8662461
  11.4856846  58.5431319  23.2743472  20.1753758  57.2031647  36.8005123
  19.6592807  56.4190104  36.6135051  21.0593707  56.8750364  36.9651642
  17.8364485  50.9472663  32.7600935  17.6389306  50.6387751  33.6444267
  18.4464191  51.6734302  32.8898865  25.8435820  61.4736611  35.8952876
  26.5739208  61.2121899  36.4560580  25.2342765  60.7365333  35.9354944
  23.9251117  59.6144473  36.4927327  23.1984280  59.4800438  35.8843819
  23.5098404  59.9221302  37.2984045  11.7481293  63.3334403  44.2574700
  12.6684303  63.5113002  44.4514747  11.7130876  62.3890449  44.1054400
  10.0485518  57.2066633  22.7328929   9.1416973  56.9099746  22.8091642
  10.3261499  56.9096452  21.8663215   0.9663458  58.5272997  33.1827975
   0.6466243  57.6738305  32.8902349   0.4196886  58.7421575  33.9385942
   4.7443366  61.2435438  36.8997482   4.9629376  62.1752546  36.9185515
   5.1569140  60.8843412  37.6852285  11.6647584  51.7503523  28.8873170
  10.8548312  51.4050608  29.2628416  12.3532001  51.4411067  29.4760782
  13.5938132  50.8281570  30.5097467  14.1469171  51.2477023  31.1687490
  13.8308218  49.9017318  30.5520423   9.6171231  56.8168644  46.2900231
   9.5167958  57.7663001  46.2212322   9.3992773  56.4886882  45.4176301
   8.8184303  54.0653569  22.8740908   9.6803467  54.3908467  23.1336725
   9.0034647  53.2785065  22.3613974  16.9716939  52.9382095  30.0176131
  16.3915608  53.5966899  29.6354183  16.7052872  52.1159440  29.6063548
  15.4220505  52.3387153  32.2197451  15.9220284  52.4503687  31.4111770
  16.0656113  52.0348206  32.8598260   9.4802501  60.2465782  45.1065292
   8.9969583  61.0466143  45.3129181   9.5663440  60.2573727  44.1532736
   2.7488461  62.0794162  33.0287112   2.7259149  62.1781849  32.0768995
   3.0589097  62.9259313  33.3504278   5.4075839  64.1370317  37.1433726
   6.3619092  64.1054259  37.0763658   5.2088362  63.6760941  37.9583952
   5.9975221  62.7071433  39.7104524   6.8168110  63.2015512  39.7339361
   6.2712029  61.7903401  39.6822091  15.7541817  55.0982185  29.0732479
  14.8667672  55.3831836  28.8552674  16.1695806  54.9375949  28.2259756
  19.1056353  55.1228706  32.7886818  19.8816743  55.6125159  33.0611435
  18.3804487  55.5486761  33.2458688  21.5428912  55.8356326  33.8460759
  22.1373403  55.5952062  33.1354067  21.6155495  55.1163456  34.4734295
   3.7626067  69.6789937  34.1603924   3.6280535  68.9190338  33.5941922
   3.3458130  70.4030836  33.6932713  14.8985030  64.8626860  23.1680499
  15.6020881  65.0676863  23.7838155  14.1747679  65.4303622  23.4329583
  15.7282841  60.6136721  29.2882769  15.6718042  61.0705273  28.4490402
  16.2811183  59.8527406  29.1105612  19.5387647  56.4026453  30.1132889
  19.2824581  56.0023089  30.9441096  18.9140515  57.1170247  29.9883028
  23.8499985  59.1422527  32.6204180  23.2899543  59.2115716  33.3935742
  23.2443488  58.9663511  31.9003676   6.9195193  70.5759254  34.3722366
   6.8027577  71.5204686  34.2701057   6.0987640  70.2732815  34.7608166
  16.8071728  65.3009389  25.2178959  17.6417332  64.8690588  25.0356434
  16.6456071  65.1291403  26.1455854  16.4617620  61.8041503  26.5835298
  16.4066424  61.6385774  25.6423743  15.8363675  62.5117536  26.7397488
   1.2510135  57.0409567  40.4096721   1.8968999  56.5308521  40.8983946
   1.0427286  57.7778249  40.9840146  13.7763527  64.1090415  45.9088861
  14.6454687  64.2831067  45.5475496  13.2970279  64.9284831  45.7864591
   9.7713746  51.3049612  26.1620617   9.7592415  52.2491452  26.3188888
  10.6637167  51.1219757  25.8680078   7.9449707  71.2287516  37.5878295
   8.8476954  71.2611126  37.9044790   7.7187078  70.2987966  37.6024631
   9.7003309  69.9818502  34.2488374   8.7498940  69.9820364  34.1352746
  10.0035796  69.2351237  33.7324408  13.5865865  47.8992388  30.4166554
  12.8198261  47.3450875  30.5623236  13.9976570  47.9714257  31.2780705
   5.5907626  54.1877184  44.5071735   6.4539088  53.8313989  44.7175059
   5.0173037  53.8491079  45.1947139  25.4356003  75.8179040  35.3134136
  26.0734413  75.6985788  34.6097476  25.3176846  76.7659884  35.3722088
  22.2445709  75.7706469  35.2495661  21.9064221  75.6547533  34.3616195
  23.1135477  75.3697634  35.2296667  18.1032525  77.6241945  31.2392552
  17.5397390  77.5331882  30.4708839  17.9884920  76.8041849  31.7195044
  22.7265492  76.9241320  41.2081866  22.7154133  76.5294119  40.3362370
  22.8886132  76.1907393  41.8015638  15.6496957  79.1193137  34.0776772
  16.4418249  78.7783961  33.6623071  15.8893607  79.2288112  34.9978925
  23.6832084  81.2912913  26.5507016  23.0320063  81.8766993  26.1641030
  24.4776446  81.8219108  26.6102054  17.6087711  78.3802050  26.9494151
  18.3818587  77.8331037  26.8107027  17.9613110  79.2446299  27.1608612
  19.4472753  79.7078432  40.1561050  19.1562619  80.6124063  40.0407716
  20.0829738  79.7494960  40.8705120  20.3728960  77.0855281  36.7462410
  20.9692532  76.8611303  36.0319373  20.4303932  76.3440026  37.3487858
  19.9453989  74.5394716  24.5812601  20.1979509  74.0176237  23.8196064
  19.0078548  74.3760861  24.6839284  24.9897271  73.5430494  32.3887344
  25.7760361  73.1249917  32.0377761  25.2535976  74.4476587  32.5568992
  25.1607349  78.9803345  27.0876001  24.5253182  79.0537971  27.7996905
  24.8304755  79.5696943  26.4095080  30.3905699  73.4805728  33.2920322
  31.1230871  72.9104944  33.5258152  29.6345054  73.0927328  33.7326828
  19.6650277  76.4422822  26.7836976  19.5486535  75.7667725  27.4518060
  19.7752537  75.9555196  25.9669129  22.0081818  75.9032969  30.4883665
  21.6440026  75.3763590  31.1996586  22.8648934  75.5131438  30.3150150
  27.9131119  67.1927302  37.7514931  27.5814444  68.0622713  37.5276146
  27.3176732  66.8763586  38.4308961  21.6487305  70.9322869  25.4845013
  21.8161708  71.8003105  25.8515484  21.4584474  71.0950150  24.5606303
  24.4062638  79.3939848  37.1510844  24.1063362  80.2964886  37.0426651
  24.0613698  79.1272031  38.0031997  17.8575120  75.8453644  33.1847548
  16.9325616  75.7129859  33.3925240  18.1059533  76.6247864  33.6817491
  27.8059782  71.9122388  34.8308281  26.8976660  71.8437796  34.5367042
  27.7547378  72.3894333  35.6590107  21.6276526  73.3880526  26.4691680
  21.5076151  73.8337577  27.3077161  20.9329115  73.7365844  25.9105218
  15.2183931  75.4886918  34.0191337  15.3476312  75.7421397  34.9330749
  14.5381382  76.0814626  33.6995992  19.3883418  86.1584168  30.1181812
  19.3107448  87.1091993  30.1970292  18.7845062  85.8130040  30.7756738
  21.8800648  73.3312033  42.7743178  21.1033982  73.8905954  42.7646043
  22.5191211  73.8168816  43.2958049  29.6721429  70.1138826  36.6086155
  29.0295809  70.4071359  35.9625950  29.1676357  69.9991747  37.4139352
  27.3261592  73.8601999  27.2972014  28.2379448  74.0929386  27.1219712
  26.8171239  74.4439044  26.7347093  20.1347020  76.1397487  42.3361145
  20.8761705  76.6782531  42.0595969  19.4284006  76.7663776  42.4932697
  25.6102360  78.2826627  40.9333307  26.0185716  77.8409038  40.1887939
  24.8879621  77.7079255  41.1867500  21.9633430  73.2199234  38.3066864
  22.8094625  73.6438648  38.4501513  21.9032068  72.5632858  39.0005427
  25.9331175  78.8427818  34.6885596  25.3040037  79.0073532  33.9861664
  25.5456837  79.2569427  35.4596560  29.8120407  79.7782256  32.0429960
  29.1271445  80.1581157  31.4926993  29.8964256  80.3877582  32.7761907
  25.1132875  70.8803602  39.9648037  24.8693807  71.6345663  39.4282313
  25.3892806  71.2588950  40.7995285  27.0671338  77.4242215  38.6425303
  27.2788233  78.0673975  37.9659684  27.0201086  76.5904531  38.1747233
  24.6697567  70.0360035  35.5461875  23.8082046  70.3341289  35.8378613
  24.6960002  70.2530434  34.6142908  21.4859137  78.5802226  31.9535681
  21.9497482  78.8589929  31.1640303  21.2215935  77.6785671  31.7708772
  18.3783218  78.1273707  34.8915444  18.9484575  78.5560976  34.2532929
  18.9691329  77.8456292  35.5899630  20.4228023  74.7025378  28.7625246
  21.1252066  75.1546422  29.2299172  20.0908651  74.0609197  29.3905139
  18.8708384  73.2937135  43.1376455  18.2407045  73.9753416  43.3711852
  18.7644472  73.1820217  42.1929594  14.1653357  72.9608931  34.0642380
  13.3752411  73.2166460  33.5882490  14.6564604  73.7757269  34.1694420
  28.1817166  80.3014170  36.8147660  29.0034610  79.8994357  36.5330342
  28.1779569  80.1982404  37.7663776  16.1168102  73.3253510  31.0225856
  15.3199265  73.4372204  31.5409352  15.8893694  73.6640162  30.1566747
  21.9473770  79.8498213  38.9708371  22.0118202  80.3118621  39.8066543
  21.2384693  79.2195578  39.0990681  12.4491060  73.2139421  36.4957370
  12.6999098  74.0986431  36.7614946  12.9850608  73.0344023  35.7232462
  36.2723159  76.6452919  33.1632632  35.5186868  76.0760317  33.0076636
  36.4070700  76.6115583  34.1103267  21.6621787  81.5166321  28.8387351
  21.5267462  82.3617857  29.2672199  22.2031600  81.7185599  28.0753285
  18.1489127  67.5957901  45.5001706  17.7556072  67.0424099  46.1749351
  18.9655267  67.9068479  45.8908224  15.1151185  79.0341759  29.4115276
  15.6275705  79.8285009  29.5620841  15.7673897  78.3368049  29.3448878
  16.9246069  82.1507515  31.4938029  17.1012698  83.0725480  31.3059013
  17.7202903  81.8365934  31.9232409  21.0657088  69.0115780  43.0921963
  21.8066801  69.6122933  43.0126425  21.2975011  68.2693418  42.5340006
  16.2098426  74.1972147  41.3700193  16.0951941  73.2957404  41.6707292
  15.3542944  74.4435844  41.0185009  23.2890264  82.1389887  42.9687693
  22.8454118  81.3526266  42.6508598  23.9507477  82.3269038  42.3031584
  18.0477385  83.6685689  37.4948372  18.5984810  83.5402752  36.7225366
  17.2088861  83.9680578  37.1443265  25.3871502  82.4192687  40.9969095
  25.3689977  83.2401568  40.5049364  26.3091422  82.2946763  41.2219236
  21.8444556  79.9336817  41.8392603  22.3772893  79.1725105  41.6091911
  21.3158637  79.6410469  42.5816757  25.0114251  65.0396883  37.3686245
  24.6678520  65.9298524  37.2925355  25.3793213  64.8498540  36.5055830
  13.0800101  77.3630413  30.1874847  13.9175323  77.7727422  29.9708555
  13.2578369  76.4229855  30.1575041  24.9764533  75.0305494  25.8758680
  24.4611157  75.8010099  26.1147067  24.7041842  74.3570630  26.4991741
  22.5611645  69.8755195  30.9343918  21.7053241  69.4862045  30.7549557
  22.9738596  69.9547156  30.0743704  24.0910791  67.4101538  35.3335478
  23.5875587  67.3731673  34.5203283  24.3841398  68.3194281  35.3932135
  20.3353677  67.4940268  34.3401660  21.2006674  67.2983076  33.9807549
  20.4031186  67.2650619  35.2671016  29.9498808  77.7837849  27.8111853
  29.1728250  77.4449008  27.3667015  30.6290289  77.7890472  27.1366818
  24.7650837  72.9032586  27.7018461  24.4600972  73.2178735  28.5528604
  25.7181279  72.9814006  27.7445794  23.2097268  79.0622809  29.3511415
  22.6818630  78.3275569  29.0384652  22.7084771  79.8397486  29.1051383
  28.1890115  77.2571830  34.4678461  27.5313789  77.9471091  34.5558590
  28.9930514  77.6468262  34.8112448  17.9415996  69.7242476  31.7118026
  18.5159748  69.5017657  30.9791219  18.5286979  69.7931170  32.4646628
  26.9995573  75.6116203  32.5182403  27.5127455  76.2446194  33.0204113
  27.6496797  75.0117398  32.1525763  18.2685583  71.7546937  25.7313912
  17.4322895  72.0921623  26.0523186  18.1290353  71.6195916  24.7941049
  20.2438664  66.5983725  30.4393096  19.5903076  66.2832742  29.8149711
  20.2019138  65.9759465  31.1652919  21.3549869  76.8803020  22.3546388
  20.4476930  76.6492273  22.5537537  21.8520901  76.0840639  22.5420370
  24.2617948  85.5900527  25.2743074  23.5879646  85.8932224  25.8828032
  24.6483770  86.3929607  24.9248531  23.4776404  73.0865658  34.7640744
  22.5598966  73.3080605  34.6062432  23.8936548  73.1611969  33.9052451
  24.2611452  74.4857074  29.8943424  25.0083271  74.9978471  29.5850546
  24.5303041  74.1641126  30.7547817  22.5338102  76.9815614  26.8770378
  21.6249321  76.6974647  26.9742848  22.5633186  77.4014693  26.0173685
  27.7657370  80.5922204  30.6461546  27.3119697  79.7513114  30.7026736
  27.1351336  81.2283602  30.9836326  26.7090289  71.5214190  31.8762213
  25.9713046  71.0091576  32.2072456  26.9617063  71.0814572  31.0645490
  26.2090309  82.4298701  31.5811364  26.5013283  82.9903758  30.8623729
  26.7188929  82.7227262  32.3364523  26.8101916  64.2990442  32.4703982
  27.1160793  63.4387805  32.1829897  27.5354521  64.8908062  32.2702976
  13.1026272  74.7021129  30.8585580  12.9050672  74.1090489  30.1336647
  12.5472936  74.3973339  31.5761519  21.0822996  74.5944235  32.9780173
  21.1371606  73.6418071  32.9022650  20.2714198  74.7503674  33.4621472
  22.2314190  78.5224358  24.2158457  21.7933620  77.8060217  23.7564094
  22.9724631  78.7500473  23.6543548  19.0215356  73.2121295  30.7370552
  18.2083222  73.5115465  31.1435744  19.5174350  72.8176984  31.4545035
  21.1723934  83.2079052  32.6704817  21.1300113  83.4339898  31.7413349
  22.0886633  82.9742426  32.8190618  24.6189568  73.6763119  39.5685446
  24.9738955  73.9034592  40.4279912  25.2661699  74.0081496  38.9462702
  30.3487305  76.7981555  30.2734775  30.2105203  76.9883151  29.3455964
  29.9923524  77.5600938  30.7302826  18.5129431  70.7839650  36.3531787
  19.1528810  70.6428409  35.6554751  17.6806961  70.4974164  35.9770389
  30.3756684  78.8658082  35.2846047  30.8093191  78.7733371  36.1329101
  31.0888265  78.8415583  34.6466063  19.2889735  80.0842081  32.4666780
  20.0830333  79.5892401  32.2649355  18.5781427  79.5559944  32.1034485
  24.1084579  82.4660176  36.8179147  24.1621601  83.0351113  37.5856863
  23.2399361  82.6362061  36.4533184  15.5972498  74.2285162  28.5426532
  14.6670086  74.1669618  28.7596495  15.6929970  73.7061115  27.7463174
  15.5158047  70.7539975  31.1304774  15.7764865  71.6685309  31.0213935
  16.3375220  70.2864418  31.2801387  16.9882973  72.1677732  38.3003599
  17.6606026  71.9595095  37.6516248  16.1612759  71.9699818  37.8608831
  31.2372234  78.9081783  37.8178932  31.4308124  79.8127593  38.0638207
  31.1372852  78.4489202  38.6517517  22.8908545  68.7939673  40.3169259
  22.2436460  69.4929623  40.2233736  23.6609560  69.2275817  40.6845508
  26.2987343  79.0588526  43.3919813  26.1472849  78.8299077  42.4749896
  26.2892022  80.0159127  43.4051158  23.0672679  76.6320438  38.3766079
  23.9964739  76.7831598  38.2035047  22.6463709  76.7204459  37.5214726
  21.8661011  80.6571103  36.1464617  21.7272096  80.2889887  37.0190555
  21.0775607  81.1718742  35.9748575  22.4609163  85.7580199  27.4890153
  22.6360918  85.2868242  28.3035776  21.7741951  86.3845965  27.7171414
  23.4166226  80.0352705  33.5353455  23.0816058  79.9953475  34.4311104
  22.9170172  79.3697421  33.0623865  17.3910470  75.4420335  39.0606036
  17.2530268  74.7100574  39.6617575  18.3015393  75.3529236  38.7790224
  26.3525418  77.3808740  23.8090514  25.7354588  76.6555568  23.7123567
  25.8841906  78.1418100  23.4657589  20.0192771  75.1540295  38.5489715
  20.7292389  74.5133487  38.5076334  19.9762079  75.4053190  39.4715896
  28.0079549  82.0907648  41.4696295  27.9492095  81.4066868  40.8026878
  28.4099068  82.8326638  41.0176921  18.7321704  72.1405513  40.3685355
  18.1959062  71.6896251  41.0206951  18.1438413  72.2751422  39.6255819
  17.0270248  88.9069562  34.2630014  17.2666846  89.5388086  34.9409032
  16.1839444  88.5557602  34.5495373  18.1423963  71.5994164  22.9311819
  17.2653430  71.4782965  22.5674065  18.6181717  70.8080242  22.6790707
  28.0096956  80.0547232  39.7010274  27.1223735  79.7173154  39.8236673
  28.5795508  79.3230263  39.9379040   9.6626104  76.3871324  33.0253326
  10.3497143  76.0733054  32.4374341   9.5074232  77.2912688  32.7520577
  14.4660826  71.2761520  37.4538349  14.3819014  70.6687190  36.7188759
  13.6443532  71.7670539  37.4547846  21.5398110  84.7148684  36.6671518
  21.4668281  85.5203656  37.1790822  21.0975503  84.9140650  35.8419539
  21.3287889  83.9520454  30.1774339  20.5455411  84.4942135  30.2712564
  22.0280635  84.4694434  30.5768580  24.6384540  69.7615084  32.8208544
  25.1353239  69.0085046  32.5009615  23.8671521  69.7979401  32.2551754
  32.4914297  75.4655449  34.4626836  32.4804173  76.3480165  34.0920769
  31.6231676  75.1127000  34.2681373  23.9996793  84.6135518  38.8229676
  24.7124766  85.2482983  38.7505578  23.5086822  84.7099384  38.0069678
  25.7214320  78.5186771  30.3946968  24.7870599  78.6388234  30.2251672
  25.8990989  77.6159238  30.1306978  21.2219508  71.9032467  32.5480229
  20.8517296  71.3503507  33.2361135  21.7178601  71.2990600  31.9955229
  29.1086872  74.3604090  30.9297002  29.5747324  75.1932082  30.8557305
  29.5594372  73.8949072  31.6342260  19.0508707  82.3629962  39.6435247
  19.7518166  82.9966445  39.7964641  18.5803822  82.7044693  38.8830886
  27.1763103  80.7047912  27.9283154  27.4522947  80.5904506  28.8377028
  26.3067601  80.3065397  27.8895327  27.0803534  66.7284677  34.9687903
  26.1666614  66.9588904  35.1370110  27.5096636  66.8123121  35.8201936
  26.8509993  74.9174569  37.4687797  26.1981443  75.1650477  36.8140250
  27.2290373  74.1038708  37.1350275  23.8117167  84.9534263  31.5715968
  23.9939561  84.1355918  32.0343720  24.6350153  85.1701955  31.1340858
  24.1459332  83.8802448  28.8331016  24.6747099  83.3694902  28.2201178
  24.4087552  83.5644978  29.6976549  22.8997566  75.6594380  43.9553834
  22.2238203  75.5588510  44.6256210  23.7225200  75.5033594  44.4189832
  14.6476425  81.8966317  36.5766350  15.2329862  81.1510005  36.7094254
  14.4501263  82.2070274  37.4603014  17.5015080  84.9317564  31.5928792
  16.8325455  85.4163692  31.1092832  17.3627950  85.1786785  32.5072171
   9.2394080  74.4671917  35.2970793   9.2778179  73.9335508  36.0907911
   8.7334373  73.9407123  34.6781770  21.6420349  86.9661308  38.1911450
  22.1938657  87.1292929  38.9560536  21.9826542  87.5565746  37.5191475
  16.6184842  69.3136458  38.7933335  16.6826168  70.1751289  38.3810733
  16.5551962  68.7010459  38.0605694  16.0937115  71.3859590  42.4406369
  16.7209153  71.0036668  43.0543894  15.2365033  71.1673792  42.8062062
  26.4931223  81.7922565  44.0460105  27.0371127  82.4052524  43.5515060
  25.9118068  82.3502144  44.5627118  12.8702657  73.1936019  28.3724724
  13.1656098  72.2846698  28.3191778  11.9690693  73.1723759  28.0505727
  24.7788736  84.9143283  35.1775133  24.6539876  84.1133023  34.6686078
  25.4367827  85.4089477  34.6889103  16.3996904  71.2692016  34.3552273
  15.6783490  71.8827984  34.2159746  17.1890160  71.8049781  34.2768919
  26.8423644  82.7152303  36.8054683  25.8953980  82.5957655  36.7333009
  27.1906418  81.8274802  36.8880944  19.2023218  68.6046442  40.6292925
  19.7257620  68.8508739  41.3919234  18.9835551  69.4366477  40.2096062
  14.5990499  70.8750117  28.4964049  14.2703205  69.9947496  28.3139155
  14.9529870  70.8197786  29.3840439  23.8470078  82.5105020  33.0059035
  23.6995040  81.5821727  33.1866605  24.6723571  82.5325110  32.5216110
  17.7132322  71.1623087  28.8639527  18.0528395  71.6909008  28.1418135
  18.1604442  71.5003493  29.6398094  27.4504200  83.3333578  34.0923908
  28.3750747  83.1276440  33.9548359  27.2819503  83.0849980  35.0013249
  20.4075763  69.5460138  38.3142595  20.0672583  68.7467951  38.7163275
  19.7014769  69.8461848  37.7419428  21.0592235  66.6309450  36.7669918
  21.8818304  66.1569928  36.6448808  21.3030298  67.4099934  37.2668604
  19.7000469  69.6597708  27.0632820  20.4208832  70.0378961  26.5596537
  19.0765773  70.3786585  27.1667798  23.8431592  70.3642857  27.9991152
  24.0595206  71.2467495  27.6979980  23.3625659  69.9729071  27.2696794
  18.5830813  73.3228571  34.5761897  18.4375394  73.6368874  35.4686178
  18.1056017  73.9413471  34.0232795  20.4427196  70.3131119  34.6242786
  20.4288765  69.4172212  34.2875084  21.1599624  70.3201782  35.2581072
  22.2953327  70.7468459  36.6695914  22.0371105  71.6685529  36.6680244
  21.7638367  70.3498893  37.3596378  27.2399516  83.8519246  29.4485999
  27.4136393  83.2865668  28.6959852  27.7328407  84.6520141  29.2665489
  13.0576476  75.8633915  37.5149558  12.5129944  76.6393723  37.6469832
  13.9355825  76.2104719  37.3568679  19.8464092  69.1945499  29.8930356
  19.9680003  68.2662145  30.0921244  19.5566135  69.2084185  28.9808672
  22.7155283  66.8800409  33.0297076  22.7376979  66.9439742  32.0749056
  23.1323342  66.0404918  33.2237582  33.0938907  76.6155669  31.0676299
  33.5370053  75.8662994  30.6695422  32.2165417  76.6065805  30.6850031
  28.2274688  83.1686010  26.5482897  28.9225593  83.7892703  26.7670212
  28.5697838  82.3181362  26.8235275  13.8442497  74.9903811  40.4079715
  13.1024233  75.1386447  40.9944345  13.5235242  75.2512077  39.5446464
  30.1266111  80.6185716  28.0770228  30.6517435  80.9572989  27.3519548
  30.0388464  79.6832731  27.8933363  21.7886160  84.5319789  40.2060105
  22.0973287  84.2868936  41.0782804  22.5861642  84.7366428  39.7178975
  21.8106772  86.6857699  32.4365481  21.3711762  86.1934078  33.1298338
  22.5614889  86.1430667  32.1957557  14.2899111  82.8769240  32.4390109
  15.1157131  82.5773012  32.0588753  13.9393163  82.1076862  32.8879898
  19.2580644  82.2295708  34.5087783  18.6360654  81.5666413  34.2090011
  19.9285511  82.2556840  33.8261431  12.4907716  80.7955566  33.3979043
  11.6539624  80.3677741  33.2163044  12.4631362  80.9888010  34.3349834
  19.3305172  70.7077496  44.1020289  19.3793327  71.5839619  43.7198059
  19.8727686  70.1654889  43.5291932  29.8160017  81.2518619  43.3821426
  29.0255561  81.2342758  42.8425926  29.5793372  81.7906913  44.1370463
  29.9357893  78.1011086  40.6954155  29.9855897  77.9361093  41.6369677
  29.8271816  77.2338345  40.3052035  18.8194151  80.7799632  27.9846244
  18.9682272  81.4635096  27.3312916  19.6260595  80.7604722  28.4995699
  27.2261655  74.0842014  42.0113461  28.1271518  73.9448479  41.7197459
  27.3009629  74.2496469  42.9511639  21.5604460  71.4608869  40.8566648
  20.6907770  71.7542435  40.5849236  21.7963941  72.0449314  41.5773911
  31.4376089  80.5208027  40.9396176  31.1460898  80.8838008  41.7759637
  30.8248221  79.8075036  40.7609508  32.6371772  78.0860907  33.4598746
  33.4718663  78.5250711  33.6236307  32.7730900  77.6099560  32.6406992
  29.6863278  75.6440642  39.4076234  30.1617399  75.8368288  38.5995086
  28.7628843  75.6999828  39.1619618  16.5746784  76.8064809  28.9907312
  16.3292826  75.9027139  29.1887523  16.7442699  76.8081960  28.0486790
  24.2643494  67.6788486  38.3732068  24.7825438  68.4149512  38.0478557
  23.9098627  67.9852479  39.2078827  15.8442432  72.5393167  26.4893474
  15.1511677  72.6137522  25.8333510  15.5994184  71.7753510  27.0114991
  24.5156088  64.0988768  33.8932965  24.7957842  63.4311957  34.5193391
  25.3006695  64.2917864  33.3807628  22.3189557  83.2747762  25.4557991
  21.7463524  83.8937949  25.0028463  22.8922350  83.8247124  25.9897913
  28.3864947  72.5206402  37.6404540  29.3382369  72.6204500  37.6616764
  28.2168397  71.7284671  38.1502624  26.4079326  69.6061985  37.8263941
  25.8129258  69.8866998  37.1310429  26.1229023  70.0955886  38.5980682
  25.5386817  83.5584912  26.5866573  26.4717490  83.4930474  26.7899449
  25.4510029  84.3941179  26.1281106  28.1674833  82.8750782  23.5470521
  28.0888465  82.5410646  24.4406279  28.9884500  83.3672550  23.5461993
  30.8653024  75.7412522  36.7546839  30.8329344  74.8028522  36.9406523
  31.4753648  75.8196558  36.0212664  22.7036355  74.6108575  22.7974043
  23.6495460  74.4814783  22.8662461  22.3250600  73.8723237  23.2743472
  31.0147513  72.5323565  36.8005123  30.4986561  71.7482022  36.6135051
  31.8987461  72.2042282  36.9651642  28.6758240  66.2764581  32.7600935
  28.4783061  65.9679669  33.6444267  29.2857945  67.0026220  32.8898865
  36.6829574  76.8028529  35.8952876  37.4132963  76.5413817  36.4560580
  36.0736520  76.0657251  35.9354944  34.7644871  74.9436391  36.4927327
  34.0378035  74.8092356  35.8843819  34.3492158  75.2513220  37.2984045
  22.5875048  78.6626321  44.2574700  23.5078057  78.8404920  44.4514747
  22.5524631  77.7182366  44.1054400  20.8879272  72.5358551  22.7328929
  19.9810728  72.2391664  22.8091642  21.1655253  72.2388369  21.8663215
  11.8057213  73.8564915  33.1827975  11.4859997  73.0030223  32.8902349
  11.2590641  74.0713493  33.9385942  15.5837120  76.5727356  36.8997482
  15.8023130  77.5044463  36.9185515  15.9962894  76.2135330  37.6852285
  22.5041338  67.0795441  28.8873170  21.6942066  66.7342526  29.2628416
  23.1925755  66.7702985  29.4760782  24.4331886  66.1573488  30.5097467
  24.9862925  66.5768941  31.1687490  24.6701973  65.2309236  30.5520423
  20.4564986  72.1460561  46.2900231  20.3561713  73.0954918  46.2212322
  20.2386528  71.8178800  45.4176301  19.6578057  69.3945486  22.8740908
  20.5197221  69.7200385  23.1336725  19.8428401  68.6076982  22.3613974
  11.6745473  77.4767826  35.1521097  10.9808944  77.0621779  34.6391051
  12.4218464  77.5188363  34.5554516  27.8110693  68.2674013  30.0176131
  27.2309363  68.9258817  29.6354183  27.5446626  67.4451357  29.6063548
  26.2614260  67.6679071  32.2197451  26.7614038  67.7795605  31.4111770
  26.9049868  67.3640123  32.8598260  20.3196256  75.5757700  45.1065292
  19.8363337  76.3758060  45.3129181  20.4057195  75.5865645  44.1532736
  13.5882215  77.4086080  33.0287112  13.5652903  77.5073767  32.0768995
  13.8982852  78.2551231  33.3504278  16.2469593  79.4662235  37.1433726
  17.2012847  79.4346177  37.0763658  16.0482117  79.0052859  37.9583952
  16.8368975  78.0363351  39.7104524  17.6561864  78.5307430  39.7339361
  17.1105783  77.1195319  39.6822091  26.5935572  70.4274103  29.0732479
  25.7061427  70.7123754  28.8552674  27.0089561  70.2667867  28.2259756
  29.9450108  70.4520624  32.7886818  30.7210498  70.9417077  33.0611435
  29.2198242  70.8778678  33.2458688  32.3822666  71.1648243  33.8460759
  32.9767157  70.9243979  33.1354067  32.4549250  70.4455374  34.4734295
  14.6019822  85.0081854  34.1603924  14.4674290  84.2482255  33.5941922
  14.1851884  85.7322754  33.6932713  25.7378785  80.1918778  23.1680499
  26.4414635  80.3968780  23.7838155  25.0141434  80.7595540  23.4329583
  26.5676595  75.9428639  29.2882769  26.5111797  76.3997191  28.4490402
  27.1204938  75.1819324  29.1105612  30.3781401  71.7318371  30.1132889
  30.1218335  71.3315007  30.9441096  29.7534269  72.4462165  29.9883028
  34.6893739  74.4714444  32.6204180  34.1293297  74.5407634  33.3935742
  34.0837242  74.2955429  31.9003676  17.7588948  85.9051171  34.3722366
  17.6421332  86.8496604  34.2701057  16.9381394  85.6024733  34.7608166
  27.6465482  80.6301307  25.2178959  28.4811086  80.1982506  25.0356434
  27.4849825  80.4583321  26.1455854  27.3011375  77.1333420  26.5835298
  27.2460178  76.9677692  25.6423743  26.6757430  77.8409453  26.7397488
  12.0903890  72.3701485  40.4096721  12.7362753  71.8600439  40.8983946
  11.8821041  73.1070166  40.9840146  24.6157282  79.4382332  45.9088861
  25.4848441  79.6122985  45.5475496  24.1364033  80.2576749  45.7864591
  20.6107500  66.6341529  26.1620617  20.5986170  67.5783369  26.3188888
  21.5030922  66.4511675  25.8680078  18.7843462  86.5579433  37.5878295
  19.6870709  86.5903043  37.9044790  18.5580832  85.6279884  37.6024631
  20.5397064  85.3110420  34.2488374  19.5892695  85.3112281  34.1352746
  20.8429550  84.5643154  33.7324408  24.4259619  63.2284306  30.4166554
  23.6592015  62.6742793  30.5623236  24.8370324  63.3006175  31.2780705
  16.4301381  69.5169102  44.5071735  17.2932842  69.1605907  44.7175059
  15.8566791  69.1782997  45.1947139  36.2749757  91.1470958  35.3134136
  36.9128167  91.0277706  34.6097476  36.1570600  92.0951802  35.3722088
  33.0839464  91.0998386  35.2495661  32.7457975  90.9839451  34.3616195
  33.9529232  90.6989551  35.2296667  28.9426279  92.9533863  31.2392552
  28.3791145  92.8623800  30.4708839  28.8278674  92.1333767  31.7195044
  33.5659247  92.2533238  41.2081866  33.5547888  91.8586036  40.3362370
  33.7279886  91.5199311  41.8015638  26.4890711  94.4485054  34.0776772
  27.2812003  94.1075879  33.6623071  26.7287362  94.5580029  34.9978925
  34.5225838  96.6204830  26.5507016  33.8713818  97.2058911  26.1641030
  35.3170201  97.1511025  26.6102054  28.4481465  93.7093968  26.9494151
  29.2212341  93.1622955  26.8107027  28.8006864  94.5738217  27.1608612
  30.2866508  95.0370350  40.1561050  29.9956374  95.9415981  40.0407716
  30.9223492  95.0786877  40.8705120  31.2122715  92.4147198  36.7462410
  31.8086287  92.1903221  36.0319373  31.2697686  91.6731944  37.3487858
  30.7847743  89.8686634  24.5812601  31.0373264  89.3468155  23.8196064
  29.8472302  89.7052779  24.6839284  35.8291026  88.8722412  32.3887344
  36.6154115  88.4541835  32.0377761  36.0929730  89.7768504  32.5568992
  36.0001103  94.3095262  27.0876001  35.3646936  94.3829889  27.7996905
  35.6698510  94.8988861  26.4095080  41.2299453  88.8097645  33.2920322
  41.9624625  88.2396862  33.5258152  40.4738809  88.4219246  33.7326828
  30.5044032  91.7714740  26.7836976  30.3880290  91.0959643  27.4518060
  30.6146292  91.2847114  25.9669129  32.8475573  91.2324887  30.4883665
  32.4833780  90.7055508  31.1996586  33.7042689  90.8423356  30.3150150
  38.7524873  82.5219219  37.7514931  38.4208198  83.3914630  37.5276146
  38.1570487  82.2055503  38.4308961  32.4881060  86.2614786  25.4845013
  32.6555462  87.1295023  25.8515484  32.2978229  86.4242068  24.5606303
  35.2456393  94.7231765  37.1510844  34.9457116  95.6256804  37.0426651
  34.9007452  94.4563949  38.0031997  28.6968874  91.1745562  33.1847548
  27.7719371  91.0421776  33.3925240  28.9453288  91.9539781  33.6817491
  38.6453537  87.2414305  34.8308281  37.7370414  87.1729714  34.5367042
  38.5941133  87.7186250  35.6590107  32.4670281  88.7172444  26.4691680
  32.3469906  89.1629495  27.3077161  31.7722869  89.0657762  25.9105218
  26.0577685  90.8178836  34.0191337  26.1870067  91.0713315  34.9330749
  25.3775137  91.4106544  33.6995992  30.2277173 101.4876086  30.1181812
  30.1501202 102.4383911  30.1970292  29.6238816 101.1421958  30.7756738
  32.7194403  88.6603951  42.7743178  31.9427737  89.2197871  42.7646043
  33.3584966  89.1460734  43.2958049  40.5115183  85.4430744  36.6086155
  39.8689563  85.7363277  35.9625950  40.0070112  85.3283664  37.4139352
  38.1655347  89.1893917  27.2972014  39.0773203  89.4221304  27.1219712
  37.6564994  89.7730961  26.7347093  30.9740775  91.4689404  42.3361145
  31.7155459  92.0074448  42.0595969  30.2677760  92.0955693  42.4932697
  36.4496114  93.6118545  40.9333307  36.8579471  93.1700955  40.1887939
  35.7273376  93.0371172  41.1867500  32.8027185  88.5491152  38.3066864
  33.6488380  88.9730565  38.4501513  32.7425822  87.8924776  39.0005427
  36.7724929  94.1719736  34.6885596  36.1433792  94.3365450  33.9861664
  36.3850591  94.5861345  35.4596560  40.6514161  95.1074173  32.0429960
  39.9665199  95.4873075  31.4926993  40.7358010  95.7169500  32.7761907
  35.9526630  86.2095520  39.9648037  35.7087562  86.9637581  39.4282313
  36.2286560  86.5880868  40.7995285  37.9065093  92.7534132  38.6425303
  38.1181988  93.3965892  37.9659684  37.8594841  91.9196449  38.1747233
  35.5091322  85.3651953  35.5461875  34.6475801  85.6633207  35.8378613
  35.5353756  85.5822352  34.6142908  32.3252891  93.9094144  31.9535681
  32.7891237  94.1881847  31.1640303  32.0609689  93.0077588  31.7708772
  29.2176972  93.4565625  34.8915444  29.7878329  93.8852894  34.2532929
  29.8085084  93.1748210  35.5899630  31.2621777  90.0317296  28.7625246
  31.9645820  90.4838340  29.2299172  30.9302406  89.3901115  29.3905139
  29.7102139  88.6229053  43.1376455  29.0800799  89.3045333  43.3711852
  29.6038226  88.5112134  42.1929594  25.0047111  88.2900849  34.0642380
  24.2146165  88.5458377  33.5882490  25.4958358  89.1049187  34.1694420
  39.0210921  95.6306088  36.8147660  39.8428364  95.2286275  36.5330342
  39.0173323  95.5274322  37.7663776  26.9561856  88.6545428  31.0225856
  26.1593020  88.7664122  31.5409352  26.7287449  88.9932080  30.1566747
  32.7867524  95.1790131  38.9708371  32.8511957  95.6410538  39.8066543
  32.0778448  94.5487496  39.0990681  23.2884814  88.5431339  36.4957370
  23.5392852  89.4278349  36.7614946  23.8244362  88.3635941  35.7232462
  47.1116914  91.9744836  33.1632632  46.3580622  91.4052234  33.0076636
  47.2464455  91.9407501  34.1103267  32.5015542  96.8458239  28.8387351
  32.3661216  97.6909774  29.2672199  33.0425354  97.0477516  28.0753285
  28.9882881  82.9249818  45.5001706  28.5949827  82.3716017  46.1749351
  29.8049022  83.2360397  45.8908224  25.9544939  94.3633677  29.4115276
  26.4669460  95.1576927  29.5620841  26.6067652  93.6659967  29.3448878
  27.7639824  97.4799433  31.4938029  27.9406452  98.4017398  31.3059013
  28.5596657  97.1657852  31.9232409  31.9050842  84.3407698  43.0921963
  32.6460556  84.9414851  43.0126425  32.1368765  83.5985335  42.5340006
  27.0492180  89.5264065  41.3700193  26.9345695  88.6249322  41.6707292
  26.1936698  89.7727762  41.0185009  34.1284018  97.4681805  42.9687693
  33.6847872  96.6818184  42.6508598  34.7901232  97.6560956  42.3031584
  28.8871139  98.9977607  37.4948372  29.4378564  98.8694670  36.7225366
  28.0482615  99.2972496  37.1443265  36.2265256  97.7484605  40.9969095
  36.2083731  98.5693486  40.5049364  37.1485176  97.6238680  41.2219236
  32.6838310  95.2628735  41.8392603  33.2166647  94.5017023  41.6091911
  32.1552391  94.9702386  42.5816757  35.8508005  80.3688800  37.3686245
  35.5072275  81.2590442  37.2925355  36.2186968  80.1790458  36.5055830
  23.9193856  92.6922331  30.1874847  24.7569078  93.1019339  29.9708555
  24.0972124  91.7521773  30.1575041  35.8158288  90.3597412  25.8758680
  35.3004911  91.1302016  26.1147067  35.5435596  89.6862548  26.4991741
  33.4005399  85.2047112  30.9343918  32.5446995  84.8153963  30.7549557
  33.8132351  85.2839073  30.0743704  34.9304546  82.7393456  35.3335478
  34.4269341  82.7023591  34.5203283  35.2235152  83.6486198  35.3932135
  31.1747432  82.8232185  34.3401660  32.0400428  82.6274994  33.9807549
  31.2424940  82.5942537  35.2671016  40.7892562  93.1129766  27.8111853
  40.0122005  92.7740926  27.3667015  41.4684043  93.1182389  27.1366818
  35.6044591  88.2324504  27.7018461  35.2994727  88.5470653  28.5528604
  36.5575033  88.3105924  27.7445794  34.0491023  94.3914727  29.3511415
  33.5212385  93.6567487  29.0384652  33.5478526  95.1689403  29.1051383
  39.0283869  92.5863747  34.4678461  38.3707543  93.2763009  34.5558590
  39.8324268  92.9760179  34.8112448  28.7809751  85.0534393  31.7118026
  29.3553502  84.8309575  30.9791219  29.3680733  85.1223088  32.4646628
  37.8389328  90.9408120  32.5182403  38.3521210  91.5738112  33.0204113
  38.4890552  90.3409316  32.1525763  29.1079338  87.0838854  25.7313912
  28.2716650  87.4213541  26.0523186  28.9684107  86.9487834  24.7941049
  31.0832418  81.9275642  30.4393096  30.4296831  81.6124659  29.8149711
  31.0412892  81.3051383  31.1652919  32.1943623  92.2094937  22.3546388
  31.2870685  91.9784191  22.5537537  32.6914655  91.4132557  22.5420370
  35.1011702 100.9192444  25.2743074  34.4273401 101.2224141  25.8828032
  35.4877524 101.7221525  24.9248531  34.3170159  88.4157576  34.7640744
  33.3992720  88.6372523  34.6062432  34.7330302  88.4903886  33.9052451
  35.1005206  89.8148991  29.8943424  35.8477025  90.3270389  29.5850546
  35.3696796  89.4933044  30.7547817  33.3731857  92.3107532  26.8770378
  32.4643076  92.0266565  26.9742848  33.4026940  92.7306611  26.0173685
  38.6051124  95.9214122  30.6461546  38.1513451  95.0805032  30.7026736
  37.9745091  96.5575520  30.9836326  37.5484044  86.8506108  31.8762213
  36.8106800  86.3383494  32.2072456  37.8010817  86.4106489  31.0645490
  37.0484063  97.7590618  31.5811364  37.3407038  98.3195675  30.8623729
  37.5582684  98.0519179  32.3364523  37.6495671  79.6282360  32.4703982
  37.9554548  78.7679723  32.1829897  38.3748276  80.2199980  32.2702976
  23.9420027  90.0313046  30.8585580  23.7444427  89.4382407  30.1336647
  23.3866691  89.7265256  31.5761519  31.9216751  89.9236153  32.9780173
  31.9765360  88.9709989  32.9022650  31.1107953  90.0795592  33.4621472
  33.0707944  93.8516276  24.2158457  32.6327374  93.1352135  23.7564094
  33.8118385  94.0792391  23.6543548  29.8609111  88.5413212  30.7370552
  29.0476976  88.8407383  31.1435744  30.3568105  88.1468901  31.4545035
  32.0117688  98.5370969  32.6704817  31.9693867  98.7631816  31.7413349
  32.9280387  98.3034344  32.8190618  35.4583322  89.0055037  39.5685446
  35.8132710  89.2326510  40.4279912  36.1055453  89.3373414  38.9462702
  41.1881059  92.1273473  30.2734775  41.0498958  92.3175069  29.3455964
  40.8317278  92.8892856  30.7302826  29.3523185  86.1131568  36.3531787
  29.9922565  85.9720327  35.6554751  28.5200716  85.8266081  35.9770389
  41.2150439  94.1950000  35.2846047  41.6486945  94.1025289  36.1329101
  41.9282019  94.1707500  34.6466063  30.1283489  95.4133998  32.4666780
  30.9224088  94.9184319  32.2649355  29.4175182  94.8851862  32.1034485
  34.9478334  97.7952094  36.8179147  35.0015356  98.3643030  37.5856863
  34.0793115  97.9653979  36.4533184  26.4366253  89.5577080  28.5426532
  25.5063841  89.4961536  28.7596495  26.5323725  89.0353033  27.7463174
  26.3551802  86.0831893  31.1304774  26.6158619  86.9977226  31.0213935
  27.1768974  85.6156336  31.2801387  27.8276727  87.4969650  38.3003599
  28.4999780  87.2887012  37.6516248  27.0006514  87.2991736  37.8608831
  42.0765988  94.2373701  37.8178932  42.2701878  95.1419511  38.0638207
  41.9766607  93.7781120  38.6517517  33.7302299  84.1231591  40.3169259
  33.0830214  84.8221541  40.2233736  34.5003314  84.5567735  40.6845508
  37.1381097  94.3880443  43.3919813  36.9866603  94.1590995  42.4749896
  37.1285777  95.3451045  43.4051158  33.9066433  91.9612356  38.3766079
  34.8358493  92.1123516  38.2035047  33.4857463  92.0496377  37.5214726
  32.7054765  95.9863020  36.1464617  32.5665851  95.6181805  37.0190555
  31.9169361  96.5010660  35.9748575  33.3002917 101.0872117  27.4890153
  33.4754673 100.6160160  28.3035776  32.6135705 101.7137883  27.7171414
  34.2559980  95.3644623  33.5353455  33.9209813  95.3245393  34.4311104
  33.7563926  94.6989339  33.0623865  28.2304224  90.7712253  39.0606036
  28.0924022  90.0392492  39.6617575  29.1409148  90.6821153  38.7790224
  37.1919172  92.7100657  23.8090514  36.5748343  91.9847486  23.7123567
  36.7235660  93.4710018  23.4657589  30.8586525  90.4832212  38.5489715
  31.5686144  89.8425405  38.5076334  30.8155833  90.7345107  39.4715896
  38.8473304  97.4199566  41.4696295  38.7885850  96.7358786  40.8026878
  39.2492822  98.1618556  41.0176921  29.5715459  87.4697430  40.3685355
  29.0352816  87.0188169  41.0206951  28.9832167  87.6043339  39.6255819
  27.8664002 104.2361480  34.2630014  28.1060601 104.8680004  34.9409032
  27.0233199 103.8849520  34.5495373  28.9817718  86.9286082  22.9311819
  28.1047184  86.8074883  22.5674065  29.4575471  86.1372160  22.6790707
  38.8490711  95.3839150  39.7010274  37.9617490  95.0465072  39.8236673
  39.4189262  94.6522181  39.9379040  20.5019858  91.7163241  33.0253326
  21.1890898  91.4024972  32.4374341  20.3467987  92.6204606  32.7520577
  25.3054580  86.6053438  37.4538349  25.2212769  85.9979108  36.7188759
  24.4837287  87.0962456  37.4547846  32.3791864 100.0440602  36.6671518
  32.3062036 100.8495574  37.1790822  31.9369257 100.2432568  35.8419539
  32.1681644  99.2812372  30.1774339  31.3849166  99.8234052  30.2712564
  32.8674389  99.7986352  30.5768580  35.4778294  85.0907002  32.8208544
  35.9746994  84.3376964  32.5009615  34.7065276  85.1271318  32.2551754
  43.3308051  90.7947367  34.4626836  43.3197928  91.6772083  34.0920769
  42.4625431  90.4418918  34.2681373  34.8390548  99.9427436  38.8229676
  35.5518520 100.5774901  38.7505578  34.3480577 100.0391302  38.0069678
  36.5608075  93.8478689  30.3946968  35.6264354  93.9680151  30.2251672
  36.7384743  92.9451156  30.1306978  32.0613263  87.2324385  32.5480229
  31.6911050  86.6795425  33.2361135  32.5572355  86.6282518  31.9955229
  39.9480626  89.6896008  30.9297002  40.4141078  90.5224000  30.8557305
  40.3988127  89.2240990  31.6342260  29.8902461  97.6921880  39.6435247
  30.5911921  98.3258363  39.7964641  29.4197576  98.0336611  38.8830886
  38.0156857  96.0339829  27.9283154  38.2916701  95.9196424  28.8377028
  37.1461356  95.6357314  27.8895327  37.9197289  82.0576595  34.9687903
  37.0060369  82.2880822  35.1370110  38.3490390  82.1415039  35.8201936
  37.6903747  90.2466487  37.4687797  37.0375198  90.4942394  36.8140250
  38.0684127  89.4330625  37.1350275  34.6510921 100.2826180  31.5715968
  34.8333316  99.4647836  32.0343720  35.4743907 100.4993872  31.1340858
  34.9853087  99.2094365  28.8331016  35.5140853  98.6986820  28.2201178
  35.2481306  98.8936896  29.6976549  33.7391320  90.9886298  43.9553834
  33.0631957  90.8880427  44.6256210  34.5618954  90.8325512  44.4189832
  25.4870179  97.2258235  36.5766350  26.0723616  96.4801923  36.7094254
  25.2895018  97.5362191  37.4603014  28.3408835 100.2609482  31.5928792
  27.6719210 100.7455610  31.1092832  28.2021704 100.5078702  32.5072171
  20.0787834  89.7963835  35.2970793  20.1171934  89.2627426  36.0907911
  19.5728127  89.2699040  34.6781770  32.4814103 102.2953226  38.1911450
  33.0332411 102.4584847  38.9560536  32.8220297 102.8857663  37.5191475
  27.4578596  84.6428375  38.7933335  27.5219923  85.5043206  38.3810733
  27.3945717  84.0302377  38.0605694  26.9330869  86.7151508  42.4406369
  27.5602908  86.3328585  43.0543894  26.0758788  86.4965710  42.8062062
  37.3324978  97.1214483  44.0460105  37.8764882  97.7344441  43.5515060
  36.7511822  97.6794061  44.5627118  23.7096412  88.5227937  28.3724724
  24.0049853  87.6138615  28.3191778  22.8084448  88.5015676  28.0505727
  35.6182491 100.2435201  35.1775133  35.4933630  99.4424941  34.6686078
  36.2761582 100.7381394  34.6889103  27.2390659  86.5983934  34.3552273
  26.5177245  87.2119901  34.2159746  28.0283915  87.1341698  34.2768919
  37.6817399  98.0444221  36.8054683  36.7347734  97.9249572  36.7333009
  38.0300172  97.1566719  36.8880944  30.0416972  83.9338360  40.6292925
  30.5651374  84.1800657  41.3919234  29.8229306  84.7658395  40.2096062
  25.4384253  86.2042035  28.4964049  25.1096960  85.3239414  28.3139155
  25.7923624  86.1489703  29.3840439  34.6863832  97.8396937  33.0059035
  34.5388795  96.9113645  33.1866605  35.5117326  97.8617028  32.5216110
  28.5526077  86.4915004  28.8639527  28.8922149  87.0200926  28.1418135
  28.9998197  86.8295411  29.6398094  38.2897954  98.6625496  34.0923908
  39.2144502  98.4568357  33.9548359  38.1213257  98.4141897  35.0013249
  31.2469517  84.8752055  38.3142595  30.9066338  84.0759868  38.7163275
  30.5408524  85.1753766  37.7419428  31.8985989  81.9601368  36.7669918
  32.7212058  81.4861846  36.6448808  32.1424053  82.7391851  37.2668604
  30.5394224  84.9889626  27.0632820  31.2602586  85.3670879  26.5596537
  29.9159528  85.7078503  27.1667798  34.6825347  85.6934775  27.9991152
  34.8988961  86.5759413  27.6979980  34.2019414  85.3020988  27.2696794
  29.4224568  88.6520488  34.5761897  29.2769149  88.9660791  35.4686178
  28.9449772  89.2705389  34.0232795  31.2820951  85.6423036  34.6242786
  31.2682520  84.7464130  34.2875084  31.9993379  85.6493700  35.2581072
  33.1347082  86.0760376  36.6695914  32.8764859  86.9977447  36.6680244
  32.6032122  85.6790811  37.3596378  38.0793270  99.1811164  29.4485999
  38.2530148  98.6157586  28.6959852  38.5722162  99.9812058  29.2665489
  23.8970230  91.1925833  37.5149558  23.3523698  91.9685641  37.6469832
  24.7749580  91.5396637  37.3568679  30.6857847  84.5237417  29.8930356
  30.8073758  83.5954063  30.0921244  30.3959889  84.5376102  28.9808672
  33.5549037  82.2092327  33.0297076  33.5770734  82.2731660  32.0749056
  33.9717096  81.3696836  33.2237582  43.9332661  91.9447586  31.0676299
  44.3763807  91.1954912  30.6695422  43.0559172  91.9357723  30.6850031
  39.0668443  98.4977928  26.5482897  39.7619347  99.1184621  26.7670212
  39.4091593  97.6473279  26.8235275  24.6836252  90.3195729  40.4079715
  23.9417988  90.4678364  40.9944345  24.3628996  90.5803995  39.5446464
  40.9659866  95.9477633  28.0770228  41.4911190  96.2864906  27.3519548
  40.8782218  95.0124649  27.8933363  32.6279915  99.8611707  40.2060105
  32.9367041  99.6160854  41.0782804  33.4255397 100.0658346  39.7178975
  32.6500527 102.0149617  32.4365481  32.2105517 101.5225995  33.1298338
  33.4008644 101.4722584  32.1957557  25.1292866  98.2061158  32.4390109
  25.9550886  97.9064929  32.0588753  24.7786918  97.4368780  32.8879898
  30.0974399  97.5587626  34.5087783  29.4754408  96.8958331  34.2090011
  30.7679266  97.5848758  33.8261431  23.3301471  96.1247484  33.3979043
  22.4933379  95.6969658  33.2163044  23.3025116  96.3179927  34.3349834
  30.1698926  86.0369414  44.1020289  30.2187082  86.9131537  43.7198059
  30.7121440  85.4946807  43.5291932  40.6553772  96.5810537  43.3821426
  39.8649316  96.5634676  42.8425926  40.4187127  97.1198831  44.1370463
  40.7751647  93.4303004  40.6954155  40.8249652  93.2653011  41.6369677
  40.6665570  92.5630263  40.3052035  29.6587906  96.1091549  27.9846244
  29.8076026  96.7927014  27.3312916  30.4654349  96.0896639  28.4995699
  38.0655409  89.4133932  42.0113461  38.9665272  89.2740396  41.7197459
  38.1403384  89.5788386  42.9511639  32.3998215  86.7900786  40.8566648
  31.5301524  87.0834352  40.5849236  32.6357695  87.3741231  41.5773911
  42.2769844  95.8499945  40.9396176  41.9854652  96.2129926  41.7759637
  41.6641975  95.1366953  40.7609508  43.4765526  93.4152825  33.4598746
  44.3112418  93.8542629  33.6236307  43.6124655  92.9391478  32.6406992
  40.5257032  90.9732560  39.4076234  41.0011154  91.1660206  38.5995086
  39.6022597  91.0291745  39.1619618  27.4140539  92.1356727  28.9907312
  27.1686581  91.2319057  29.1887523  27.5836453  92.1373877  28.0486790
  35.1037249  83.0080403  38.3732068  35.6219192  83.7441430  38.0478557
  34.7492381  83.3144397  39.2078827  26.6836186  87.8685084  26.4893474
  25.9905431  87.9429439  25.8333510  26.4387938  87.1045428  27.0114991
  35.3549843  79.4280686  33.8932965  35.6351596  78.7603875  34.5193391
  36.1400450  79.6209781  33.3807628  33.1583311  98.6039680  25.4557991
  32.5857278  99.2229867  25.0028463  33.7316105  99.1539041  25.9897913
  39.2258701  87.8498320  37.6404540  40.1776124  87.9496417  37.6616764
  39.0562151  87.0576588  38.1502624  37.2473081  84.9353903  37.8263941
  36.6523013  85.2158916  37.1310429  36.9622777  85.4247804  38.5980682
  36.3780571  98.8876830  26.5866573  37.3111244  98.8222391  26.7899449
  36.2903784  99.7233097  26.1281106  39.0068588  98.2042700  23.5470521
  38.9282219  97.8702564  24.4406279  39.8278254  98.6964468  23.5461993
  41.7046779  91.0704439  36.7546839  41.6723099  90.1320440  36.9406523
  42.3147403  91.1488476  36.0212664  33.5430110  89.9400492  22.7974043
  34.4889214  89.8106701  22.8662461  33.1644355  89.2015154  23.2743472
  41.8541267  87.8615483  36.8005123  41.3380316  87.0773939  36.6135051
  42.7381216  87.5334199  36.9651642  39.5151994  81.6056498  32.7600935
  39.3176815  81.2971587  33.6444267  40.1251700  82.3318137  32.8898865
  47.5223329  92.1320446  35.8952876  48.2526717  91.8705734  36.4560580
  46.9130274  91.3949168  35.9354944  45.6038626  90.2728309  36.4927327
  44.8771789  90.1384274  35.8843819  45.1885913  90.5805137  37.2984045
  33.4268802  93.9918239  44.2574700  34.3471812  94.1696838  44.4514747
  33.3918385  93.0474284  44.1054400  31.7273027  87.8650469  22.7328929
  30.8204482  87.5683581  22.8091642  32.0049008  87.5680287  21.8663215
  22.6450967  89.1856832  33.1827975  22.3253752  88.3322140  32.8902349
  22.0984395  89.4005410  33.9385942  26.4230875  91.9019273  36.8997482
  26.6416885  92.8336381  36.9185515  26.8356649  91.5427248  37.6852285
  33.3435093  82.4087358  28.8873170  32.5335821  82.0634443  29.2628416
  34.0319510  82.0994902  29.4760782  35.2725641  81.4865405  30.5097467
  35.8256679  81.9060859  31.1687490  35.5095727  80.5601153  30.5520423
  31.2958740  87.4752479  46.2900231  31.1955467  88.4246836  46.2212322
  31.0780282  87.1470718  45.4176301  30.4971812  84.7237404  22.8740908
  31.3590975  85.0492302  23.1336725  30.6822156  83.9368900  22.3613974
  22.5139227  92.8059744  35.1521097  21.8202699  92.3913696  34.6391051
  23.2612218  92.8480280  34.5554516  38.6504448  83.5965930  30.0176131
  38.0703117  84.2550734  29.6354183  38.3840381  82.7743275  29.6063548
  37.1008014  82.9970988  32.2197451  37.6007793  83.1087523  31.4111770
  37.7443622  82.6932041  32.8598260  31.1590010  90.9049618  45.1065292
  30.6757092  91.7049978  45.3129181  31.2450949  90.9157563  44.1532736
  24.4275970  92.7377997  33.0287112  24.4046658  92.8365685  32.0768995
  24.7376606  93.5843148  33.3504278  27.0863348  94.7954152  37.1433726
  28.0406601  94.7638095  37.0763658  26.8875871  94.3344776  37.9583952
  27.6762730  93.3655269  39.7104524  28.4955619  93.8599347  39.7339361
  27.9499537  92.4487237  39.6822091  37.4329326  85.7566021  29.0732479
  36.5455181  86.0415671  28.8552674  37.8483315  85.5959784  28.2259756
  40.7843862  85.7812542  32.7886818  41.5604252  86.2708994  33.0611435
  40.0591996  86.2070596  33.2458688  43.2216421  86.4940161  33.8460759
  43.8160912  86.2535897  33.1354067  43.2943004  85.7747292  34.4734295
  25.4413576 100.3373772  34.1603924  25.3068044  99.5774173  33.5941922
  25.0245639 101.0614672  33.6932713  36.5772539  95.5210696  23.1680499
  37.2808390  95.7260698  23.7838155  35.8535188  96.0887457  23.4329583
  37.4070350  91.2720557  29.2882769  37.3505551  91.7289108  28.4490402
  37.9598692  90.5111241  29.1105612  41.2175156  87.0610289  30.1132889
  40.9612090  86.6606924  30.9441096  40.5928024  87.7754083  29.9883028
  45.5287494  89.8006362  32.6204180  44.9687051  89.8699551  33.3935742
  44.9230997  89.6247347  31.9003676  28.5982702 101.2343089  34.3722366
  28.4815086 102.1788521  34.2701057  27.7775149 100.9316651  34.7608166
  38.4859237  95.9593225  25.2178959  39.3204841  95.5274423  25.0356434
  38.3243580  95.7875238  26.1455854  38.1405129  92.4625338  26.5835298
  38.0853933  92.2969609  25.6423743  37.5151184  93.1701371  26.7397488
  22.9297644  87.6993402  40.4096721  23.5756508  87.1892356  40.8983946
  22.7214795  88.4362084  40.9840146  35.4551036  94.7674250  45.9088861
  36.3242196  94.9414902  45.5475496  34.9757788  95.5868667  45.7864591
  31.4501255  81.9633447  26.1620617  31.4379924  82.9075287  26.3188888
  32.3424676  81.7803592  25.8680078  29.6237216 101.8871351  37.5878295
  30.5264463 101.9194961  37.9044790  29.3974587 100.9571802  37.6024631
  31.3790818 100.6402337  34.2488374  30.4286449 100.6404199  34.1352746
  31.6823305  99.8935072  33.7324408  35.2653374  78.5576224  30.4166554
  34.4985770  78.0034710  30.5623236  35.6764079  78.6298092  31.2780705
  27.2695135  84.8461019  44.5071735  28.1326597  84.4897824  44.7175059
  26.6960546  84.5074914  45.1947139  47.1143512 106.4762876  35.3134136
  47.7521922 106.3569623  34.6097476  46.9964355 107.4243720  35.3722088
  43.9233218 106.4290304  35.2495661  43.5851730 106.3131369  34.3616195
  44.7922986 106.0281469  35.2296667  39.7820034 108.2825780  31.2392552
  39.2184899 108.1915717  30.4708839  39.6672429 107.4625685  31.7195044
  44.4053001 107.5825156  41.2081866  44.3941642 107.1877954  40.3362370
  44.5673641 106.8491228  41.8015638  37.3284466 109.7776972  34.0776772
  38.1205758 109.4367797  33.6623071  37.5681116 109.8871947  34.9978925
  45.3619593 111.9496748  26.5507016  44.7107572 112.5350828  26.1641030
  46.1563955 112.4802943  26.6102054  39.2875220 109.0385885  26.9494151
  40.0606096 108.4914872  26.8107027  39.6400619 109.9030135  27.1608612
  41.1260262 110.3662267  40.1561050  40.8350128 111.2707898  40.0407716
  41.7617247 110.4078795  40.8705120  42.0516469 107.7439116  36.7462410
  42.6480041 107.5195138  36.0319373  42.1091441 107.0023861  37.3487858
  41.6241498 105.1978551  24.5812601  41.8767018 104.6760073  23.8196064
  40.6866057 105.0344697  24.6839284  46.6684780 104.2014330  32.3887344
  47.4547870 103.7833753  32.0377761  46.9323485 105.1060422  32.5568992
  46.8394858 109.6387180  27.0876001  46.2040691 109.7121807  27.7996905
  46.5092264 110.2280779  26.4095080  52.0693208 104.1389563  33.2920322
  52.8018380 103.5688780  33.5258152  51.3132563 103.7511163  33.7326828
  41.3437786 107.1006657  26.7836976  41.2274044 106.4251561  27.4518060
  41.4540046 106.6139031  25.9669129  43.6869327 106.5616804  30.4883665
  43.3227535 106.0347425  31.1996586  44.5436443 106.1715273  30.3150150
  49.5918628  97.8511137  37.7514931  49.2601953  98.7206548  37.5276146
  48.9964241  97.5347421  38.4308961  43.3274814 101.5906704  25.4845013
  43.4949217 102.4586940  25.8515484  43.1371983 101.7533986  24.5606303
  46.0850147 110.0523683  37.1510844  45.7850871 110.9548722  37.0426651
  45.7401207 109.7855866  38.0031997  39.5362629 106.5037480  33.1847548
  38.6113125 106.3713694  33.3925240  39.7847042 107.2831699  33.6817491
  49.4847291 102.5706223  34.8308281  48.5764169 102.5021632  34.5367042
  49.4334887 103.0478168  35.6590107  43.3064035 104.0464362  26.4691680
  43.1863660 104.4921412  27.3077161  42.6116624 104.3949679  25.9105218
  36.8971440 106.1470753  34.0191337  37.0263821 106.4005232  34.9330749
  36.2168891 106.7398461  33.6995992  43.5588157 103.9895869  42.7743178
  42.7821491 104.5489789  42.7646043  44.1978720 104.4752652  43.2958049
  51.3508938 100.7722662  36.6086155  50.7083318 101.0655195  35.9625950
  50.8463866 100.6575582  37.4139352  49.0049101 104.5185835  27.2972014
  49.9166957 104.7513222  27.1219712  48.4958748 105.1022879  26.7347093
  41.8134529 106.7981322  42.3361145  42.5549214 107.3366366  42.0595969
  41.1071515 107.4247611  42.4932697  47.2889869 108.9410463  40.9333307
  47.6973225 108.4992873  40.1887939  46.5667130 108.3663090  41.1867500
  43.6420939 103.8783069  38.3066864  44.4882134 104.3022483  38.4501513
  43.5819577 103.2216694  39.0005427  47.6118684 109.5011653  34.6885596
  46.9827546 109.6657367  33.9861664  47.2244346 109.9153263  35.4596560
  51.4907916 110.4366091  32.0429960  50.8058954 110.8164992  31.4926993
  51.5751765 111.0461418  32.7761907  46.7920384 101.5387438  39.9648037
  46.5481316 102.2929498  39.4282313  47.0680315 101.9172785  40.7995285
  48.7458847 108.0826050  38.6425303  48.9575742 108.7257810  37.9659684
  48.6988595 107.2488367  38.1747233  46.3485076 100.6943871  35.5461875
  45.4869555 100.9925124  35.8378613  46.3747511 100.9114270  34.6142908
  43.1646645 109.2386061  31.9535681  43.6284991 109.5173764  31.1640303
  42.9003444 108.3369506  31.7708772  40.0570727 108.7857543  34.8915444
  40.6272084 109.2144811  34.2532929  40.6478838 108.5040128  35.5899630
  42.1015532 105.3609214  28.7625246  42.8039575 105.8130257  29.2299172
  41.7696160 104.7193033  29.3905139  40.5495893 103.9520970  43.1376455
  39.9194554 104.6337251  43.3711852  40.4431981 103.8404052  42.1929594
  35.8440866 103.6192766  34.0642380  35.0539919 103.8750295  33.5882490
  36.3352113 104.4341104  34.1694420  49.8604675 110.9598006  36.8147660
  50.6822119 110.5578193  36.5330342  49.8567078 110.8566240  37.7663776
  37.7955611 103.9837346  31.0225856  36.9986774 104.0956040  31.5409352
  37.5681203 104.3223998  30.1566747  43.6261279 110.5082049  38.9708371
  43.6905711 110.9702456  39.8066543  42.9172202 109.8779414  39.0990681
  34.1278568 103.8723257  36.4957370  34.3786607 104.7570267  36.7614946
  34.6638117 103.6927858  35.7232462  57.9510668 107.3036754  33.1632632
  57.1974377 106.7344152  33.0076636  58.0858209 107.2699418  34.1103267
  43.3409296 112.1750156  28.8387351  43.2054971 113.0201692  29.2672199
  43.8819109 112.3769434  28.0753285  39.8276636  98.2541736  45.5001706
  39.4343581  97.7007935  46.1749351  40.6442776  98.5652315  45.8908224
  36.7938694 109.6925594  29.4115276  37.3063214 110.4868845  29.5620841
  37.4461406 108.9951885  29.3448878  38.6033578 112.8091351  31.4938029
  38.7800207 113.7309315  31.3059013  39.3990412 112.4949770  31.9232409
  42.7444597  99.6699615  43.0921963  43.4854310 100.2706768  43.0126425
  42.9762520  98.9277253  42.5340006  37.8885935 104.8555982  41.3700193
  37.7739450 103.9541240  41.6707292  37.0330453 105.1019679  41.0185009
  44.9677773 112.7973723  42.9687693  44.5241627 112.0110101  42.6508598
  45.6294986 112.9852873  42.3031584  39.7264894 114.3269524  37.4948372
  40.2772319 114.1986588  36.7225366  38.8876370 114.6264413  37.1443265
  47.0659011 113.0776523  40.9969095  47.0477486 113.8985404  40.5049364
  47.9878931 112.9530598  41.2219236  43.5232065 110.5920652  41.8392603
  44.0560402 109.8308940  41.6091911  42.9946146 110.2994304  42.5816757
  46.6901760  95.6980718  37.3686245  46.3466029  96.5882360  37.2925355
  47.0580722  95.5082376  36.5055830  34.7587610 108.0214249  30.1874847
  35.5962832 108.4311257  29.9708555  34.9365878 107.0813691  30.1575041
  46.6552042 105.6889329  25.8758680  46.1398666 106.4593934  26.1147067
  46.3829351 105.0154465  26.4991741  44.2399153 100.5339030  30.9343918
  43.3840750 100.1445880  30.7549557  44.6526105 100.6130991  30.0743704
  45.7698300  98.0685373  35.3335478  45.2663096  98.0315508  34.5203283
  46.0628907  98.9778116  35.3932135  42.0141186  98.1524103  34.3401660
  42.8794183  97.9566912  33.9807549  42.0818695  97.9234455  35.2671016
  51.6286317 108.4421684  27.8111853  50.8515759 108.1032843  27.3667015
  52.3077798 108.4474307  27.1366818  46.4438346 103.5616421  27.7018461
  46.1388481 103.8762571  28.5528604  47.3968788 103.6397841  27.7445794
  44.8884777 109.7206645  29.3511415  44.3606139 108.9859404  29.0384652
  44.3872280 110.4981321  29.1051383  49.8677623 107.9155665  34.4678461
  49.2101298 108.6054927  34.5558590  50.6718023 108.3052097  34.8112448
  39.6203505 100.3826311  31.7118026  40.1947257 100.1601492  30.9791219
  40.2074488 100.4515005  32.4646628  48.6783082 106.2700038  32.5182403
  49.1914964 106.9030030  33.0204113  49.3284306 105.6701233  32.1525763
  39.9473092 102.4130772  25.7313912  39.1110404 102.7505459  26.0523186
  39.8077862 102.2779752  24.7941049  41.9226173  97.2567560  30.4393096
  41.2690585  96.9416577  29.8149711  41.8806647  96.6343300  31.1652919
  43.0337378 107.5386855  22.3546388  42.1264439 107.3076108  22.5537537
  43.5308410 106.7424474  22.5420370  45.9405457 116.2484362  25.2743074
  45.2667155 116.5516059  25.8828032  46.3271279 117.0513442  24.9248531
  45.1563913 103.7449493  34.7640744  44.2386475 103.9664440  34.6062432
  45.5724057 103.8195804  33.9052451  45.9398961 105.1440909  29.8943424
  46.6870780 105.6562306  29.5850546  46.2090550 104.8224962  30.7547817
  44.2125611 107.6399450  26.8770378  43.3036830 107.3558483  26.9742848
  44.2420695 108.0598528  26.0173685  49.4444879 111.2506039  30.6461546
  48.9907206 110.4096949  30.7026736  48.8138845 111.8867438  30.9836326
  48.3877798 102.1798025  31.8762213  47.6500555 101.6675412  32.2072456
  48.6404572 101.7398407  31.0645490  47.8877818 113.0882536  31.5811364
  48.1800792 113.6487593  30.8623729  48.3976438 113.3811097  32.3364523
  48.4889425  94.9574277  32.4703982  48.7948302  94.0971641  32.1829897
  49.2142030  95.5491898  32.2702976  34.7813781 105.3604964  30.8585580
  34.5838181 104.7674325  30.1336647  34.2260445 105.0557174  31.5761519
  42.7610505 105.2528070  32.9780173  42.8159115 104.3001907  32.9022650
  41.9501707 105.4087510  33.4621472  43.9101699 109.1808193  24.2158457
  43.4721129 108.4644052  23.7564094  44.6512140 109.4084308  23.6543548
  40.7002865 103.8705130  30.7370552  39.8870731 104.1699301  31.1435744
  41.1961859 103.4760819  31.4545035  42.8511443 113.8662887  32.6704817
  42.8087622 114.0923733  31.7413349  43.7674142 113.6326262  32.8190618
  46.2977077 104.3346955  39.5685446  46.6526464 104.5618428  40.4279912
  46.9449208 104.6665331  38.9462702  52.0274814 107.4565391  30.2734775
  51.8892712 107.6466986  29.3455964  51.6711032 108.2184773  30.7302826
  40.1916940 101.4423486  36.3531787  40.8316319 101.3012245  35.6554751
  39.3594470 101.1557999  35.9770389  52.0544193 109.5241918  35.2846047
  52.4880700 109.4317207  36.1329101  52.7675774 109.4999418  34.6466063
  40.9677244 110.7425916  32.4666780  41.7617842 110.2476236  32.2649355
  40.2568936 110.2143779  32.1034485  45.7872088 113.1244012  36.8179147
  45.8409110 113.6934948  37.5856863  44.9186870 113.2945897  36.4533184
  37.2760007 104.8868998  28.5426532  36.3457595 104.8253453  28.7596495
  37.3717479 104.3644951  27.7463174  37.1945556 101.4123811  31.1304774
  37.4552374 102.3269144  31.0213935  38.0162729 100.9448253  31.2801387
  38.6670482 102.8261568  38.3003599  39.3393535 102.6178930  37.6516248
  37.8400268 102.6283654  37.8608831  52.9159743 109.5665618  37.8178932
  53.1095633 110.4711429  38.0638207  52.8160361 109.1073037  38.6517517
  44.5696054  99.4523509  40.3169259  43.9223969 100.1513458  40.2233736
  45.3397069  99.8859653  40.6845508  47.9774852 109.7172361  43.3919813
  47.8260358 109.4882913  42.4749896  47.9679531 110.6742962  43.4051158
  44.7460188 107.2904274  38.3766079  45.6752248 107.4415433  38.2035047
  44.3251218 107.3788294  37.5214726  43.5448520 111.3154938  36.1464617
  43.4059605 110.9473722  37.0190555  42.7563116 111.8302578  35.9748575
  44.1396672 116.4164035  27.4890153  44.3148427 115.9452078  28.3035776
  43.4529460 117.0429801  27.7171414  45.0953735 110.6936541  33.5353455
  44.7603567 110.6537311  34.4311104  44.5957681 110.0281257  33.0623865
  39.0697979 106.1004171  39.0606036  38.9317777 105.3684410  39.6617575
  39.9802902 106.0113071  38.7790224  48.0312927 108.0392575  23.8090514
  47.4142097 107.3139403  23.7123567  47.5629415 108.8001935  23.4657589
  41.6980279 105.8124130  38.5489715  42.4079898 105.1717322  38.5076334
  41.6549588 106.0637025  39.4715896  49.6867058 112.7491483  41.4696295
  49.6279604 112.0650704  40.8026878  50.0886577 113.4910473  41.0176921
  40.4109213 102.7989348  40.3685355  39.8746570 102.3480086  41.0206951
  39.8225922 102.9335257  39.6255819  39.8211472 102.2577999  22.9311819
  38.9440939 102.1366800  22.5674065  40.2969225 101.4664078  22.6790707
  49.6884465 110.7131067  39.7010274  48.8011244 110.3756989  39.8236673
  50.2583016 109.9814099  39.9379040  31.3413613 107.0455159  33.0253326
  32.0284652 106.7316889  32.4374341  31.1861741 107.9496524  32.7520577
  36.1448335 101.9345356  37.4538349  36.0606523 101.3271025  36.7188759
  35.3231041 102.4254374  37.4547846  43.2185619 115.3732520  36.6671518
  43.1455790 116.1787491  37.1790822  42.7763012 115.5724486  35.8419539
  43.0075398 114.6104290  30.1774339  42.2242920 115.1525970  30.2712564
  43.7068144 115.1278269  30.5768580  46.3172049 100.4198919  32.8208544
  46.8140748  99.6668882  32.5009615  45.5459030 100.4563236  32.2551754
  54.1701806 106.1239285  34.4626836  54.1591682 107.0064000  34.0920769
  53.3019185 105.7710836  34.2681373  45.6784302 115.2719354  38.8229676
  46.3912275 115.9066819  38.7505578  45.1874331 115.3683220  38.0069678
  47.4001829 109.1770606  30.3946968  46.4658108 109.2972069  30.2251672
  47.5778498 108.2743073  30.1306978  42.9007017 102.5616302  32.5480229
  42.5304805 102.0087343  33.2361135  43.3966110 101.9574436  31.9955229
  50.7874381 105.0187926  30.9297002  51.2534833 105.8515917  30.8557305
  51.2381881 104.5532907  31.6342260  40.7296216 113.0213797  39.6435247
  41.4305675 113.6550280  39.7964641  40.2591331 113.3628529  38.8830886
  48.8550612 111.3631747  27.9283154  49.1310456 111.2488342  28.8377028
  47.9855110 110.9649232  27.8895327  48.7591043  97.3868513  34.9687903
  47.8454123  97.6172740  35.1370110  49.1884145  97.4706957  35.8201936
  48.5297502 105.5758405  37.4687797  47.8768952 105.8234312  36.8140250
  48.9077882 104.7622543  37.1350275  45.4904676 115.6118098  31.5715968
  45.6727070 114.7939754  32.0343720  46.3137662 115.8285790  31.1340858
  45.8246841 114.5386283  28.8331016  46.3534608 114.0278738  28.2201178
  46.0875061 114.2228813  29.6976549  44.5785075 106.3178216  43.9553834
  43.9025712 106.2172345  44.6256210  45.4012709 106.1617430  44.4189832
  36.3263934 112.5550152  36.5766350  36.9117371 111.8093840  36.7094254
  36.1288772 112.8654109  37.4603014  39.1802589 115.5901400  31.5928792
  38.5112964 116.0747527  31.1092832  39.0415459 115.8370620  32.5072171
  30.9181589 105.1255753  35.2970793  30.9565688 104.5919343  36.0907911
  30.4121882 104.5990958  34.6781770  43.3207858 117.6245143  38.1911450
  43.8726166 117.7876765  38.9560536  43.6614051 118.2149581  37.5191475
  38.2972351  99.9720293  38.7933335  38.3613677 100.8335124  38.3810733
  38.2339471  99.3594295  38.0605694  37.7724624 102.0443426  42.4406369
  38.3996662 101.6620503  43.0543894  36.9152542 101.8257628  42.8062062
  48.1718732 112.4506401  44.0460105  48.7158636 113.0636359  43.5515060
  47.5905577 113.0085979  44.5627118  34.5490166 103.8519855  28.3724724
  34.8443607 102.9430533  28.3191778  33.6478202 103.8307594  28.0505727
  46.4576245 115.5727119  35.1775133  46.3327384 114.7716859  34.6686078
  47.1155336 116.0673312  34.6889103  38.0784413 101.9275851  34.3552273
  37.3570999 102.5411819  34.2159746  38.8677669 102.4633616  34.2768919
  48.5211153 113.3736139  36.8054683  47.5741489 113.2541490  36.7333009
  48.8693927 112.4858637  36.8880944  40.8810727  99.2630278  40.6292925
  41.4045129  99.5092574  41.3919234  40.6623060 100.0950313  40.2096062
  36.2778008 101.5333952  28.4964049  35.9490714 100.6531331  28.3139155
  36.6317379 101.4781621  29.3840439  45.5257587 113.1688855  33.0059035
  45.3782549 112.2405562  33.1866605  46.3511080 113.1908946  32.5216110
  39.3919831 101.8206922  28.8639527  39.7315904 102.3492843  28.1418135
  39.8391951 102.1587328  29.6398094  49.1291709 113.9917414  34.0923908
  50.0538256 113.7860275  33.9548359  48.9607012 113.7433815  35.0013249
  42.0863272 100.2043973  38.3142595  41.7460092  99.4051786  38.7163275
  41.3802278 100.5045684  37.7419428  42.7379744  97.2893285  36.7669918
  43.5605813  96.8153763  36.6448808  42.9817807  98.0683769  37.2668604
  41.3787978 100.3181544  27.0632820  42.0996341 100.6962797  26.5596537
  40.7553282 101.0370421  27.1667798  45.5219101 101.0226693  27.9991152
  45.7382715 101.9051331  27.6979980  45.0413168 100.6312906  27.2696794
  40.2618322 103.9812406  34.5761897  40.1162903 104.2952709  35.4686178
  39.7843526 104.5997306  34.0232795  42.1214705 100.9714954  34.6242786
  42.1076274 100.0756047  34.2875084  42.8387133 100.9785618  35.2581072
  43.9740836 101.4052294  36.6695914  43.7158614 102.3269365  36.6680244
  43.4425876 101.0082729  37.3596378  48.9187025 114.5103081  29.4485999
  49.0923902 113.9449504  28.6959852  49.4115916 115.3103976  29.2665489
  34.7363985 106.5217750  37.5149558  34.1917453 107.2977558  37.6469832
  35.6143334 106.8688555  37.3568679  41.5251601  99.8529334  29.8930356
  41.6467512  98.9245980  30.0921244  41.2353644  99.8668020  28.9808672
  44.3942792  97.5384245  33.0297076  44.4164488  97.6023578  32.0749056
  44.8110851  96.6988753  33.2237582  54.7726416 107.2739504  31.0676299
  55.2157562 106.5246829  30.6695422  53.8952926 107.2649641  30.6850031
  49.9062197 113.8269846  26.5482897  50.6013102 114.4476538  26.7670212
  50.2485347 112.9765197  26.8235275  35.5230006 105.6487647  40.4079715
  34.7811742 105.7970282  40.9944345  35.2022751 105.9095912  39.5446464
  51.8053620 111.2769551  28.0770228  52.3304944 111.6156824  27.3519548
  51.7175973 110.3416566  27.8933363  43.4673669 115.1903625  40.2060105
  43.7760796 114.9452772  41.0782804  44.2649151 115.3950263  39.7178975
  43.4894281 117.3441534  32.4365481  43.0499271 116.8517913  33.1298338
  44.2402398 116.8014502  32.1957557  35.9686620 113.5353075  32.4390109
  36.7944640 113.2356847  32.0588753  35.6180672 112.7660698  32.8879898
  40.9368153 112.8879544  34.5087783  40.3148163 112.2250249  34.2090011
  41.6073020 112.9140675  33.8261431  34.1695225 111.4539402  33.3979043
  33.3327133 111.0261576  33.2163044  34.1418871 111.6471845  34.3349834
  41.0092681 101.3661332  44.1020289  41.0580836 102.2423454  43.7198059
  41.5515195 100.8238725  43.5291932  51.4947526 111.9102455  43.3821426
  50.7043070 111.8926594  42.8425926  51.2580881 112.4490748  44.1370463
  51.6145401 108.7594921  40.6954155  51.6643406 108.5944929  41.6369677
  51.5059325 107.8922180  40.3052035  40.4981660 111.4383467  27.9846244
  40.6469781 112.1218931  27.3312916  41.3048104 111.4188557  28.4995699
  48.9049164 104.7425849  42.0113461  49.8059027 104.6032314  41.7197459
  48.9797138 104.9080304  42.9511639  43.2391969 102.1192704  40.8566648
  42.3695279 102.4126270  40.5849236  43.4751450 102.7033149  41.5773911
  53.1163598 111.1791863  40.9396176  52.8248407 111.5421843  41.7759637
  52.5035730 110.4658871  40.7609508  54.3159281 108.7444742  33.4598746
  55.1506172 109.1834547  33.6236307  54.4518409 108.2683396  32.6406992
  51.3650787 106.3024477  39.4076234  51.8404908 106.4952124  38.5995086
  50.4416352 106.3583663  39.1619618  38.2534293 107.4648645  28.9907312
  38.0080335 106.5610975  29.1887523  38.4230208 107.4665795  28.0486790
  45.9431003  98.3372321  38.3732068  46.4612947  99.0733348  38.0478557
  45.5886136  98.6436314  39.2078827  37.5229941 103.1977002  26.4893474
  36.8299186 103.2721357  25.8333510  37.2781693 102.4337346  27.0114991
  46.1943597  94.7572603  33.8932965  46.4745351  94.0895792  34.5193391
  46.9794204  94.9501699  33.3807628  43.9977066 113.9331597  25.4557991
  43.4251033 114.5521784  25.0028463  44.5709859 114.4830959  25.9897913
  50.0652456 103.1790237  37.6404540  51.0169878 103.2788335  37.6616764
  49.8955906 102.3868506  38.1502624  48.0866835 100.2645821  37.8263941
  47.4916767 100.5450833  37.1310429  47.8016532 100.7539722  38.5980682
  47.2174325 114.2168747  26.5866573  48.1504999 114.1514309  26.7899449
  47.1297538 115.0525014  26.1281106  49.8462342 113.5334618  23.5470521
  49.7675974 113.1994481  24.4406279  50.6672009 114.0256386  23.5461993
  52.5440533 106.3996357  36.7546839  52.5116853 105.4612358  36.9406523
  53.1541157 106.4780394  36.0212664  44.3823864 105.2692410  22.7974043
  45.3282969 105.1398618  22.8662461  44.0038109 104.5307072  23.2743472
  52.6935022 103.1907401  36.8005123  52.1774070 102.4065857  36.6135051
  53.5774970 102.8626117  36.9651642  50.3545749  96.9348416  32.7600935
  50.1570570  96.6263504  33.6444267  50.9645454  97.6610055  32.8898865
  58.3617083 107.4612364  35.8952876  59.0920472 107.1997652  36.4560580
  57.7524029 106.7241086  35.9354944  56.4432380 105.6020227  36.4927327
  55.7165544 105.4676191  35.8843819  56.0279667 105.9097055  37.2984045
  44.2662557 109.3210156  44.2574700  45.1865566 109.4988755  44.4514747
  44.2312140 108.3766202  44.1054400  42.5666781 103.1942386  22.7328929
  41.6598237 102.8975499  22.8091642  42.8442762 102.8972205  21.8663215
  33.4844722 104.5148750  33.1827975  33.1647506 103.6614058  32.8902349
  32.9378150 104.7297328  33.9385942  37.2624629 107.2311191  36.8997482
  37.4810639 108.1628299  36.9185515  37.6750403 106.8719165  37.6852285
  44.1828847  97.7379276  28.8873170  43.3729575  97.3926361  29.2628416
  44.8713264  97.4286820  29.4760782  46.1119395  96.8157323  30.5097467
  46.6650434  97.2352776  31.1687490  46.3489482  95.8893071  30.5520423
  42.1352495 102.8044397  46.2900231  42.0349222 103.7538754  46.2212322
  41.9174037 102.4762636  45.4176301  41.3365566 100.0529322  22.8740908
  42.1984730 100.3784220  23.1336725  41.5215910  99.2660818  22.3613974
  33.3532982 108.1351661  35.1521097  32.6596453 107.7205614  34.6391051
  34.1005973 108.1772198  34.5554516  49.4898202  98.9257848  30.0176131
  48.9096872  99.5842652  29.6354183  49.2234135  98.1035193  29.6063548
  47.9401769  98.3262906  32.2197451  48.4401547  98.4379440  31.4111770
  48.5837377  98.0223959  32.8598260  41.9983765 106.2341535  45.1065292
  41.5150846 107.0341896  45.3129181  42.0844704 106.2449480  44.1532736
  35.2669724 108.0669915  33.0287112  35.2440412 108.1657602  32.0768995
  35.5770361 108.9135066  33.3504278  37.9257102 110.1246070  37.1433726
  38.8800356 110.0930013  37.0763658  37.7269626 109.6636694  37.9583952
  38.5156484 108.6947186  39.7104524  39.3349373 109.1891265  39.7339361
  38.7893292 107.7779154  39.6822091  48.2723080 101.0857939  29.0732479
  47.3848936 101.3707589  28.8552674  48.6877070 100.9251702  28.2259756
  51.6237617 101.1104460  32.7886818  52.3998007 101.6000912  33.0611435
  50.8985751 101.5362514  33.2458688  54.0610175 101.8232079  33.8460759
  54.6554666 101.5827815  33.1354067  54.1336759 101.1039209  34.4734295
  47.4166294 110.8502613  23.1680499  48.1202144 111.0552616  23.7838155
  46.6928943 111.4179375  23.4329583  48.2464104 106.6012474  29.2882769
  48.1899306 107.0581026  28.4490402  48.7992447 105.8403159  29.1105612
  52.0568910 102.3902206  30.1132889  51.8005844 101.9898842  30.9441096
  51.4321778 103.1046000  29.9883028  56.3681248 105.1298280  32.6204180
  55.8080806 105.1991469  33.3935742  55.7624751 104.9539264  31.9003676
  49.3252991 111.2885142  25.2178959  50.1598595 110.8566341  25.0356434
  49.1637334 111.1167156  26.1455854  48.9798884 107.7917256  26.5835298
  48.9247687 107.6261527  25.6423743  48.3544939 108.4993289  26.7397488
  33.7691399 103.0285320  40.4096721  34.4150262 102.5184274  40.8983946
  33.5608550 103.7654002  40.9840146  46.2944791 110.0966168  45.9088861
  47.1635950 110.2706820  45.5475496  45.8151542 110.9160584  45.7864591
  42.2895009  97.2925365  26.1620617  42.2773679  98.2367205  26.3188888
  43.1818431  97.1095510  25.8680078  40.4630971 117.2163269  37.5878295
  41.3658218 117.2486879  37.9044790  40.2368341 116.2863720  37.6024631
  42.2184573 115.9694255  34.2488374  41.2680204 115.9696117  34.1352746
  42.5217059 115.2226990  33.7324408  46.1047128  93.8868141  30.4166554
  45.3379524  93.3326628  30.5623236  46.5157833  93.9590010  31.2780705
  38.1088890 100.1752937  44.5071735  38.9720351  99.8189742  44.7175059
  37.5354300  99.8366832  45.1947139  57.9537266 121.8054794  35.3134136
  58.5915676 121.6861541  34.6097476  57.8358109 122.7535637  35.3722088
  54.7626973 121.7582222  35.2495661  54.4245484 121.6423286  34.3616195
  55.6316741 121.3573387  35.2296667  52.4635252 120.5270469  24.5812601
  52.7160773 120.0051990  23.8196064  51.5259811 120.3636614  24.6839284
  57.5078535 119.5306247  32.3887344  58.2941624 119.1125671  32.0377761
  57.7717239 120.4352340  32.5568992  62.9086962 119.4681481  33.2920322
  63.6412134 118.8980697  33.5258152  62.1526318 119.0803081  33.7326828
  54.5263082 121.8908722  30.4883665  54.1621289 121.3639343  31.1996586
  55.3830198 121.5007191  30.3150150  60.4312382 113.1803055  37.7514931
  60.0995707 114.0498466  37.5276146  59.8357996 112.8639339  38.4308961
  54.1668569 116.9198622  25.4845013  54.3342971 117.7878858  25.8515484
  53.9765738 117.0825903  24.5606303  60.3241046 117.8998141  34.8308281
  59.4157923 117.8313549  34.5367042  60.2728642 118.3770086  35.6590107
  54.1457790 119.3756279  26.4691680  54.0257415 119.8213330  27.3077161
  53.4510378 119.7241597  25.9105218  54.3981912 119.3187786  42.7743178
  53.6215246 119.8781707  42.7646043  55.0372475 119.8044569  43.2958049
  62.1902692 116.1014579  36.6086155  61.5477072 116.3947112  35.9625950
  61.6857621 115.9867500  37.4139352  59.8442856 119.8477752  27.2972014
  60.7560712 120.0805139  27.1219712  59.3352503 120.4314797  26.7347093
  54.4814694 119.2074987  38.3066864  55.3275889 119.6314401  38.4501513
  54.4213331 118.5508611  39.0005427  57.6314139 116.8679355  39.9648037
  57.3875071 117.6221416  39.4282313  57.9074069 117.2464703  40.7995285
  59.5852602 123.4117968  38.6425303  59.7969497 124.0549728  37.9659684
  59.5382350 122.5780284  38.1747233  57.1878831 116.0235788  35.5461875
  56.3263310 116.3217042  35.8378613  57.2141265 116.2406187  34.6142908
  52.9409286 120.6901131  28.7625246  53.6433329 121.1422175  29.2299172
  52.6089915 120.0484950  29.3905139  51.3889648 119.2812888  43.1376455
  50.7588308 119.9629169  43.3711852  51.2825735 119.1695970  42.1929594
  48.6349365 119.3129263  31.0225856  47.8380529 119.4247957  31.5409352
  48.4074958 119.6515915  30.1566747  68.7904423 122.6328672  33.1632632
  68.0368131 122.0636070  33.0076636  68.9251964 122.5991336  34.1103267
  50.6670390 113.5833654  45.5001706  50.2737336 113.0299852  46.1749351
  51.4836531 113.8944232  45.8908224  53.5838351 114.9991533  43.0921963
  54.3248065 115.5998686  43.0126425  53.8156274 114.2569171  42.5340006
  57.5295514 111.0272636  37.3686245  57.1859784 111.9174278  37.2925355
  57.8974477 110.8374293  36.5055830  57.4945797 121.0181247  25.8758680
  56.9792420 121.7885852  26.1147067  57.2223105 120.3446383  26.4991741
  55.0792908 115.8630948  30.9343918  54.2234504 115.4737798  30.7549557
  55.4919860 115.9422909  30.0743704  56.6092055 113.3977291  35.3335478
  56.1056850 113.3607426  34.5203283  56.9022661 114.3070034  35.3932135
  52.8534940 113.4816021  34.3401660  53.7187937 113.2858829  33.9807549
  52.9212449 113.2526372  35.2671016  62.4680071 123.7713602  27.8111853
  61.6909514 123.4324761  27.3667015  63.1471552 123.7766225  27.1366818
  57.2832100 118.8908339  27.7018461  56.9782236 119.2054488  28.5528604
  58.2362542 118.9689759  27.7445794  60.7071378 123.2447583  34.4678461
  60.0495052 123.9346844  34.5558590  61.5111777 123.6344015  34.8112448
  50.4597260 115.7118229  31.7118026  51.0341011 115.4893410  30.9791219
  51.0468242 115.7806923  32.4646628  59.5176837 121.5991956  32.5182403
  60.0308719 122.2321947  33.0204113  60.1678061 120.9993151  32.1525763
  50.7866847 117.7422690  25.7313912  49.9504159 118.0797376  26.0523186
  50.6471616 117.6071669  24.7941049  52.7619927 112.5859478  30.4393096
  52.1084340 112.2708495  29.8149711  52.7200401 111.9635218  31.1652919
  55.9957668 119.0741411  34.7640744  55.0780229 119.2956358  34.6062432
  56.4117811 119.1487722  33.9052451  56.7792715 120.4732827  29.8943424
  57.5264534 120.9854224  29.5850546  57.0484305 120.1516879  30.7547817
  59.2271553 117.5089943  31.8762213  58.4894309 116.9967329  32.2072456
  59.4798326 117.0690325  31.0645490  59.3283180 110.2866195  32.4703982
  59.6342057 109.4263558  32.1829897  60.0535785 110.8783815  32.2702976
  53.6004260 120.5819988  32.9780173  53.6552869 119.6293824  32.9022650
  52.7895462 120.7379427  33.4621472  51.5396620 119.1997048  30.7370552
  50.7264485 119.4991218  31.1435744  52.0355614 118.8052737  31.4545035
  57.1370831 119.6638872  39.5685446  57.4920219 119.8910345  40.4279912
  57.7842962 119.9957249  38.9462702  62.8668568 122.7857308  30.2734775
  62.7286467 122.9758904  29.3455964  62.5104787 123.5476691  30.7302826
  51.0310694 116.7715403  36.3531787  51.6710074 116.6304162  35.6554751
  50.1988225 116.4849917  35.9770389  62.8937948 124.8533835  35.2846047
  63.3274454 124.7609124  36.1329101  63.6069528 124.8291336  34.6466063
  48.0339311 116.7415728  31.1304774  48.2946128 117.6561062  31.0213935
  48.8556483 116.2740171  31.2801387  49.5064236 118.1553486  38.3003599
  50.1787289 117.9470848  37.6516248  48.6794023 117.9575572  37.8608831
  55.4089808 114.7815426  40.3169259  54.7617723 115.4805376  40.2233736
  56.1790823 115.2151570  40.6845508  52.5374034 121.1416048  38.5489715
  53.2473653 120.5009240  38.5076334  52.4943342 121.3928943  39.4715896
  51.2502968 118.1281266  40.3685355  50.7140325 117.6772004  41.0206951
  50.6619676 118.2627175  39.6255819  50.6605227 117.5869917  22.9311819
  49.7834693 117.4658718  22.5674065  51.1362980 116.7955995  22.6790707
  46.9842089 117.2637273  37.4538349  46.9000278 116.6562943  36.7188759
  46.1624796 117.7546292  37.4547846  57.1565803 115.7490837  32.8208544
  57.6534503 114.9960799  32.5009615  56.3852785 115.7855154  32.2551754
  65.0095560 121.4531202  34.4626836  64.9985437 122.3355918  34.0920769
  64.1412940 121.1002753  34.2681373  53.7400772 117.8908220  32.5480229
  53.3698559 117.3379260  33.2361135  54.2359864 117.2866353  31.9955229
  61.6268135 120.3479843  30.9297002  62.0928587 121.1807835  30.8557305
  62.0775636 119.8824825  31.6342260  59.5984798 112.7160430  34.9687903
  58.6847878 112.9464657  35.1370110  60.0277899 112.7998874  35.8201936
  59.3691256 120.9050322  37.4687797  58.7162707 121.1526230  36.8140250
  59.7471636 120.0914461  37.1350275  55.4178829 121.6470133  43.9553834
  54.7419466 121.5464263  44.6256210  56.2406463 121.4909347  44.4189832
  49.1366105 115.3012211  38.7933335  49.2007432 116.1627042  38.3810733
  49.0733226 114.6886212  38.0605694  48.6118378 117.3735343  42.4406369
  49.2390417 116.9912421  43.0543894  47.7546297 117.1549545  42.8062062
  48.9178168 117.2567769  34.3552273  48.1964754 117.8703737  34.2159746
  49.7071424 117.7925534  34.2768919  51.7204481 114.5922195  40.6292925
  52.2438883 114.8384492  41.3919234  51.5016815 115.4242230  40.2096062
  47.1171762 116.8625870  28.4964049  46.7884468 115.9823249  28.3139155
  47.4711133 116.8073539  29.3840439  50.2313585 117.1498840  28.8639527
  50.5709658 117.6784761  28.1418135  50.6785706 117.4879246  29.6398094
  52.9257026 115.5335891  38.3142595  52.5853847 114.7343704  38.7163275
  52.2196033 115.8337601  37.7419428  53.5773498 112.6185203  36.7669918
  54.3999567 112.1445681  36.6448808  53.8211562 113.3975687  37.2668604
  52.2181733 115.6473461  27.0632820  52.9390095 116.0254714  26.5596537
  51.5947037 116.3662338  27.1667798  56.3612856 116.3518610  27.9991152
  56.5776470 117.2343248  27.6979980  55.8806923 115.9604824  27.2696794
  51.1012077 119.3104324  34.5761897  50.9556658 119.6244627  35.4686178
  50.6237281 119.9289224  34.0232795  52.9608460 116.3006872  34.6242786
  52.9470029 115.4047965  34.2875084  53.6780888 116.3077535  35.2581072
  54.8134591 116.7344212  36.6695914  54.5552368 117.6561282  36.6680244
  54.2819631 116.3374646  37.3596378  52.3645356 115.1821252  29.8930356
  52.4861267 114.2537898  30.0921244  52.0747398 115.1959938  28.9808672
  55.2336546 112.8676162  33.0297076  55.2558243 112.9315495  32.0749056
  55.6504605 112.0280671  33.2237582  65.6120170 122.6031422  31.0676299
  66.0551316 121.8538747  30.6695422  64.7346681 122.5941558  30.6850031
  51.8486435 116.6953249  44.1020289  51.8974591 117.5715372  43.7198059
  52.3908949 116.1530642  43.5291932  62.4539156 124.0886839  40.6954155
  62.5037161 123.9236846  41.6369677  62.3453079 123.2214098  40.3052035
  59.7442918 120.0717767  42.0113461  60.6452781 119.9324232  41.7197459
  59.8190893 120.2372222  42.9511639  54.0785724 117.4484622  40.8566648
  53.2089033 117.7418188  40.5849236  54.3145204 118.0325067  41.5773911
  65.1553035 124.0736660  33.4598746  65.9899927 124.5126464  33.6236307
  65.2912164 123.5975313  32.6406992  62.2044541 121.6316395  39.4076234
  62.6798663 121.8244041  38.5995086  61.2810106 121.6875581  39.1619618
  56.7824758 113.6664239  38.3732068  57.3006701 114.4025265  38.0478557
  56.4279890 113.9728232  39.2078827  48.3623695 118.5268920  26.4893474
  47.6692940 118.6013275  25.8333510  48.1175447 117.7629263  27.0114991
  57.0337352 110.0864521  33.8932965  57.3139105 109.4187710  34.5193391
  57.8187959 110.2793617  33.3807628  60.9046210 118.5082155  37.6404540
  61.8563633 118.6080253  37.6616764  60.7349660 117.7160424  38.1502624
  58.9260590 115.5937738  37.8263941  58.3310522 115.8742751  37.1310429
  58.6410286 116.0831639  38.5980682  63.3834288 121.7288275  36.7546839
  63.3510608 120.7904276  36.9406523  63.9934911 121.8072311  36.0212664
  55.2217619 120.5984328  22.7974043  56.1676723 120.4690536  22.8662461
  54.8431864 119.8598990  23.2743472  63.5328776 118.5199318  36.8005123
  63.0167825 117.7357775  36.6135051  64.4168725 118.1918035  36.9651642
  61.1939503 112.2640334  32.7600935  60.9964324 111.9555422  33.6444267
  61.8039209 112.9901973  32.8898865  69.2010838 122.7904282  35.8952876
  69.9314226 122.5289570  36.4560580  68.5917783 122.0533004  35.9354944
  67.2826135 120.9312144  36.4927327  66.5559298 120.7968109  35.8843819
  66.8673422 121.2388973  37.2984045  53.4060536 118.5234304  22.7328929
  52.4991991 118.2267417  22.8091642  53.6836517 118.2264122  21.8663215
  55.0222602 113.0671194  28.8873170  54.2123330 112.7218279  29.2628416
  55.7107019 112.7578738  29.4760782  56.9513150 112.1449241  30.5097467
  57.5044188 112.5644694  31.1687490  57.1883236 111.2184989  30.5520423
  52.9746249 118.1336314  46.2900231  52.8742976 119.0830671  46.2212322
  52.7567791 117.8054553  45.4176301  52.1759320 115.3821239  22.8740908
  53.0378484 115.7076138  23.1336725  52.3609665 114.5952735  22.3613974
  60.3291957 114.2549766  30.0176131  59.7490626 114.9134570  29.6354183
  60.0627890 113.4327110  29.6063548  58.7795523 113.6554824  32.2197451
  59.2795302 113.7671358  31.4111770  59.4231131 113.3515876  32.8598260
  59.1116835 116.4149856  29.0732479  58.2242690 116.6999507  28.8552674
  59.5270824 116.2543620  28.2259756  62.4631371 116.4396377  32.7886818
  63.2391761 116.9292830  33.0611435  61.7379505 116.8654431  33.2458688
  64.9003930 117.1523996  33.8460759  65.4948421 116.9119732  33.1354067
  64.9730513 116.4331127  34.4734295  59.0857859 121.9304392  29.2882769
  59.0293060 122.3872944  28.4490402  59.6386201 121.1695077  29.1105612
  62.8962665 117.7194124  30.1132889  62.6399599 117.3190760  30.9441096
  62.2715533 118.4337918  29.9883028  67.2075002 120.4590197  32.6204180
  66.6474560 120.5283387  33.3935742  66.6018506 120.2831182  31.9003676
  59.8192638 123.1209173  26.5835298  59.7641442 122.9553445  25.6423743
  59.1938693 123.8285206  26.7397488  53.1288763 112.6217282  26.1620617
  53.1167433 113.5659122  26.3188888  54.0212185 112.4387428  25.8680078
  56.9440883 109.2160059  30.4166554  56.1773279 108.6618546  30.5623236
  57.3551588 109.2881928  31.2780705  48.9482644 115.5044855  44.5071735
  49.8114106 115.1481660  44.7175059  48.3748055 115.1658750  45.1947139
  70.1676934 125.6158113  32.4703982  70.4735811 124.7555476  32.1829897
  70.8929539 126.2075733  32.2702976  67.8731106 125.4156439  33.8932965
  68.1532860 124.7479628  34.5193391  68.6581713 125.6085534  33.3807628
  72.0333258 127.5932251  32.7600935  71.8358079 127.2847340  33.6444267
  72.6432963 128.3193890  32.8898865  67.7834637 124.5451977  30.4166554
  67.0167033 123.9910463  30.5623236  68.1945342 124.6173845  31.2780705
   4.8143715  28.1400853  30.7705411   5.3583619  28.7530811  30.2760366
   4.2330560  28.6980431  31.2872424   8.1372510  27.5996907  30.1066733
   7.3468053  27.5821046  29.5671232   7.9005864  28.1385200  30.8615769
   2.9369774  25.7860619  32.6334168   3.8060934  25.9601272  32.2720803
   2.4576525  26.6055036  32.5109897  14.5962250  37.4949245  22.0379443
  15.2340660  37.3755993  21.3342783  14.4783093  38.4430089  22.0967395
  11.4051956  37.4476674  21.9740967  11.0670468  37.3317738  21.0861502
  12.2741724  37.0467839  21.9541973  11.8871739  38.6011525  27.9327173
  11.8760380  38.2064324  27.0607676  12.0492378  37.8677598  28.5260944
   8.6079000  41.3848637  26.8806357   8.3168866  42.2894268  26.7653023
   9.2435985  41.4265165  27.5950426   9.5335207  38.7625486  23.4707716
  10.1298779  38.5381508  22.7564679   9.5910179  38.0210231  24.0733164
  19.5511945  35.1575932  20.0165629  20.2837117  34.5875149  20.2503459
  18.7951301  34.7697533  20.4572135  17.0737366  28.8697507  24.4760238
  16.7420690  29.7392918  24.2521453  16.4782979  28.5533791  25.1554268
  13.5668885  41.0710053  23.8756150  13.2669608  41.9735091  23.7671958
  13.2219945  40.8042236  24.7277303  16.9666029  33.5892593  21.5553588
  16.0582906  33.5208001  21.2612349  16.9153625  34.0664538  22.3835413
   8.5489665  47.8354373  16.8427118   8.4713695  48.7862198  16.9215599
   7.9451309  47.4900245  17.5002044  11.0406895  35.0082238  29.4988485
  10.2640229  35.5676158  29.4891350  11.6797458  35.4939021  30.0203355
  18.8327675  31.7909031  23.3331462  18.1902056  32.0841564  22.6871256
  18.3282604  31.6761951  24.1384658   9.2953267  37.8167692  29.0606452
  10.0367951  38.3552736  28.7841276   8.5890253  38.4433980  29.2178004
  14.7708607  39.9596832  27.6578614  15.1791963  39.5179243  26.9133246
  14.0485868  39.3849460  27.9112806  11.1239677  34.8969439  25.0312170
  11.9700872  35.3208852  25.1746819  11.0638314  34.2403063  25.7250734
  15.0937421  40.5198023  21.4130902  14.4646284  40.6843737  20.7106970
  14.7063083  40.9339632  22.1841866  18.9726653  41.4552461  18.7675266
  18.2877691  41.8351362  18.2172299  19.0570503  42.0647787  19.5007214
  14.2739122  32.5573807  26.6893344  14.0300054  33.3115868  26.1527620
  14.5499053  32.9359155  27.5240591  16.2277585  39.1012420  25.3670610
  16.4394480  39.7444180  24.6904991  16.1807333  38.2674736  24.8992540
   7.5389464  39.8043912  21.6160751   8.1090821  40.2331181  20.9778235
   8.1297576  39.5226497  22.3144936   8.0314631  34.9707340  29.8621762
   7.4013291  35.6523621  30.0957159   7.9250719  34.8590421  28.9174900
  17.3423413  41.9784375  23.5392967  18.1640857  41.5764562  23.2575649
  17.3385816  41.8752609  24.4909083  11.1080016  41.5268418  25.6953678
  11.1724449  41.9888826  26.5311849  10.3990940  40.8965783  25.8235987
  25.4329406  38.3223124  19.8877939  24.6793114  37.7530522  19.7321943
  25.5676947  38.2885788  20.8348573   7.3095374  29.2728106  32.2247013
   6.9162319  28.7194304  32.8994657   8.1261514  29.5838684  32.6153531
  10.2263335  30.6885985  29.8167270  10.9673048  31.2893138  29.7371732
  10.4581257  29.9463623  29.2585312   5.3704673  35.8742352  28.0945499
   5.2558188  34.9727609  28.3952598   4.5149190  36.1206049  27.7430316
  12.4496510  43.8160092  29.6933000  12.0060365  43.0296471  29.3753904
  13.1113724  44.0039243  29.0276891   7.2083632  45.3455894  24.2193678
   7.7591057  45.2172957  23.4470672   6.3695107  45.6450783  23.8688571
  14.5477748  44.0962892  27.7214401  14.5296224  44.9171773  27.2294670
  15.4697668  43.9716968  27.9464542  11.0050803  41.6107022  28.5637910
  11.5379139  40.8495310  28.3337218  10.4764884  41.3180674  29.3062064
  17.3496361  38.9342035  21.1923768  16.6920036  39.6241296  21.2803897
  18.1536760  39.3238467  21.5357754  16.1601820  37.2886407  19.2427710
  16.6733702  37.9216399  19.7449419  16.8103044  36.6887603  18.8771070
  16.9263616  42.2692409  17.3706852  16.4725943  41.4283319  17.4272043
  16.2957583  42.9053807  17.7081632  15.3696556  44.1068906  18.3056670
  15.6619530  44.6673963  17.5869036  15.8795176  44.3997467  19.0609830
  10.3330181  44.8849257  19.3950124  10.2906360  45.1110103  18.4658656
  11.2492880  44.6512631  19.5435925  13.7795815  35.3533324  26.2930753
  14.1345202  35.5804797  27.1525219  14.4267946  35.6851701  25.6708008
  19.5362931  40.5428287  22.0091353  19.9699438  40.4503576  22.8574407
  20.2494512  40.5185788  21.3711369  13.2690826  44.1430381  23.5424454
  13.3227848  44.7121318  24.3102170  12.4005607  44.3132266  23.1778491
  20.3978481  40.5851988  24.5424239  20.5914371  41.4897798  24.7883514
  20.2979099  40.1259407  25.3762824  12.0514791  30.4709878  27.0414566
  11.4042706  31.1699828  26.9479043  12.8215807  30.9046022  27.4090814
  15.4593589  40.7358731  30.1165119  15.3079096  40.5069282  29.1995203
  15.4498269  41.6929332  30.1296464  12.2278926  38.3090643  25.1011386
  13.1570986  38.4601803  24.9280353  11.8069956  38.3974664  24.2460032
  11.0267257  42.3341308  22.8709923  10.8878343  41.9660092  23.7435862
  10.2381854  42.8488947  22.6993881  12.5772473  41.7122910  20.2598761
  12.2422305  41.6723680  21.1556411  12.0776418  41.0467626  19.7869171
   6.5516717  37.1190540  25.7851342   6.4136515  36.3870779  26.3862881
   7.4621640  37.0299440  25.5035530   9.1799017  36.8310500  25.2735022
   9.8898636  36.1903692  25.2321640   9.1368325  37.0823395  26.1961203
  17.1685796  43.7677853  28.1941601  17.1098342  43.0837073  27.5272184
  17.5705314  44.5096843  27.7422227   7.8927951  33.8175718  27.0930662
   7.3565308  33.3666456  27.7452258   7.3044660  33.9521626  26.3501126
   6.1876495  50.5839767  20.9875320   6.4273093  51.2158291  21.6654339
   5.3445691  50.2327807  21.2740679  17.1703203  41.7317437  26.4255581
  16.2829982  41.3943359  26.5481980  17.7401754  41.0000468  26.6624346
  10.7004357  46.3918889  23.3916824  10.6274528  47.1973861  23.9036129
  10.2581750  46.5910855  22.5664846  10.4894136  45.6290659  16.9019646
   9.7061658  46.1712340  16.9957870  11.1886881  46.1464639  17.3013887
  21.6520544  37.1425654  21.1872143  21.6410420  38.0250370  20.8166076
  20.7837923  36.7897205  20.9926680  13.1603040  46.2905723  25.5474983
  13.8731012  46.9253188  25.4750884  12.6693069  46.3869589  24.7314985
   8.2114954  44.0400167  26.3680554   8.9124413  44.6736650  26.5209948
   7.7410069  44.3814898  25.6076193  16.0116240  36.5944774  24.1933104
  15.3587690  36.8420682  23.5385557  16.3896620  35.7808912  23.8595581
  12.9723414  46.6304467  18.2961274  13.1545808  45.8126123  18.7589027
  13.7956400  46.8472160  17.8586164  13.3065579  45.5572653  15.5576323
  13.8353345  45.0465107  14.9446485  13.5693799  45.2415183  16.4221856
  12.0603813  37.3364585  30.6799141  11.3844450  37.2358715  31.3501516
  12.8831447  37.1803799  31.1435138   3.8082672  43.5736522  23.3011656
   4.3936109  42.8280210  23.4339561   3.6107510  43.8840479  24.1848320
   6.6621327  46.6087769  18.3174099   5.9931702  47.0933897  17.8338139
   6.5234197  46.8556990  19.2317477  10.8026596  48.6431513  24.9156757
  11.3544904  48.8063134  25.6805842  11.1432789  49.2335951  24.2436782
   5.2543361  33.0629795  29.1651676   5.8815400  32.6806872  29.7789200
   4.3971280  32.8443997  29.5307369  15.6537470  43.4692770  30.7705411
  16.1977374  44.0822729  30.2760366  15.0724315  44.0272349  31.2872424
  13.9394983  46.5913488  21.9020439  13.8146122  45.7903228  21.3931385
  14.5974074  47.0859682  21.4134409  16.0029891  44.3922508  23.5299989
  15.0560227  44.2727860  23.4578316  16.3512664  43.5045006  23.6126251
   8.3629465  30.2816647  27.3538231   8.8863866  30.5278944  28.1164540
   8.1441798  31.1136682  26.9341369  13.0076325  44.1875225  19.7304342
  12.8601287  43.2591932  19.9111912  13.8329818  44.2095315  19.2461417
  16.6110446  45.0103783  20.8169214  17.5356994  44.8046645  20.6793665
  16.4425750  44.7620185  21.7258556  11.4559574  32.4238664  23.3941220
  11.1977352  33.3455734  23.3925551  10.9244614  32.0269098  24.0841684
  16.4005763  45.5289451  16.1731306  16.5742640  44.9635873  15.4205158
  16.8934654  46.3290346  15.9910796   2.2182722  37.5404120  24.2394865
   1.6736190  38.3163928  24.3715139   3.0962072  37.8874924  24.0813986
  22.2545154  38.2925874  17.7921605  22.6976300  37.5433199  17.3940729
  21.3771664  38.2836010  17.4095337   3.0048744  36.6674016  27.1325021
   2.2630480  36.8156652  27.7189652   2.6841489  36.9282282  26.2691771
  10.9492407  46.2089994  26.9305411  11.2579533  45.9639141  27.8028111
  11.7467889  46.4136633  26.4424282  10.9713019  48.3627904  19.1610788
  10.5318009  47.8704283  19.8543645  11.7221136  47.8200872  18.9202863
   8.4186891  43.9065913  21.2333090   7.7966900  43.2436618  20.9335317
   9.0891758  43.9327045  20.5506737   8.4911419  32.3847701  30.8265596
   8.5399574  33.2609824  30.4443365   9.0333933  31.8425094  30.2537239
  18.9766264  42.9288824  30.1066733  18.1861808  42.9112963  29.5671232
  18.7399619  43.4677118  30.8615769  19.0964139  39.7781291  27.4199461
  19.1462144  39.6131298  28.3614984  18.9878063  38.9108550  27.0297342
  16.3867902  35.7612219  28.7358768  17.2877764  35.6218684  28.4442766
  16.4615876  35.9266674  29.6756945  10.7210707  33.1379074  27.5811954
   9.8514016  33.4312640  27.3094543  10.9570187  33.7219519  28.3019218
  20.5982336  42.1978232  27.6641483  20.3067144  42.5608213  28.5004944
  19.9854467  41.4845241  27.4854815  21.7978018  39.7631112  20.1844053
  22.6324910  40.2020916  20.3481613  21.9337147  39.2869765  19.3652299
  18.8469524  37.3210847  26.1321541  19.3223646  37.5138493  25.3240392
  17.9235090  37.3770033  25.8864924  13.4249741  29.3558690  25.0977375
  13.9431685  30.0919717  24.7723863  13.0704874  29.6622684  25.9324134
  17.5471193  34.1976607  24.3649846  18.4988616  34.2974705  24.3862070
  17.3774644  33.4054876  24.8747931  15.5685573  31.2832190  24.5509247
  14.9735505  31.5637203  23.8555736  15.2835270  31.7726091  25.3225988
  20.0259271  37.4182727  23.4792146  19.9935591  36.4798727  23.6651830
  20.6359895  37.4966763  22.7457971  20.1753760  34.2093770  23.5250429
  19.6592808  33.4252227  23.3380358  21.0593708  33.8812487  23.6896949
  25.8435821  38.4798734  22.6198183  26.5739209  38.2184022  23.1805886
  25.2342766  37.7427455  22.6600251  23.9251118  36.6206596  23.2172634
  23.1984282  36.4862561  22.6089126  23.5098405  36.9283425  24.0229352
  11.7481295  40.3396526  30.9820007  12.6684304  40.5175125  31.1760054
  11.7130878  39.3952571  30.8299706   4.7443367  38.2497560  23.6242788
   4.9629377  39.1814668  23.6430822   5.1569141  37.8905535  24.4097592
   9.6171232  33.8230766  33.0145537   9.5167959  34.7725123  32.9457628
   9.3992774  33.4949005  32.1421607   9.4802502  37.2527905  31.8310599
   8.9969584  38.0528265  32.0374488   9.5663441  37.2635850  30.8778043
   5.4075840  41.1432440  23.8679033   6.3619093  41.1116382  23.8008964
   5.2088364  40.6823063  24.6829259   5.9975222  39.7133556  26.4349830
   6.8168111  40.2077634  26.4584668   6.2712030  38.7965524  26.4067398
  21.5428913  32.8418448  20.5706066  22.1373404  32.6014184  19.8599374
  21.6155497  32.1225579  21.1979602   3.7626069  46.6852059  20.8849230
   3.6280537  45.9252460  20.3187229   3.3458131  47.4092959  20.4178019
  23.8499986  36.1484649  19.3449487  23.2899544  36.2177838  20.1181049
  23.2443489  35.9725634  18.6248983   6.9195195  47.5821376  21.0967673
   6.8027579  48.5266809  20.9946363   6.0987641  47.2794938  21.4853472
   1.2510136  34.0471690  27.1342027   1.8969000  33.5370644  27.6229252
   1.0427287  34.7840371  27.7085453  13.7763529  41.1152537  32.6334168
  14.6454688  41.2893189  32.2720803  13.2970280  41.9346954  32.5109897
   7.9449709  48.2349638  24.3123602   8.8476955  48.2673248  24.6290096
   7.7187079  47.3050089  24.3269937   9.7003311  46.9880625  20.9733680
   8.7498942  46.9882486  20.8598052  10.0035797  46.2413359  20.4569715
   5.5907627  31.1939307  31.2317042   6.4539089  30.8376112  31.4420366
   5.0173038  30.8553202  31.9192446  25.4356004  52.8241163  22.0379443
  26.0734414  52.7047910  21.3342783  25.3176847  53.7722007  22.0967395
  22.2445711  52.7768591  21.9740967  21.9064222  52.6609656  21.0861502
  23.1135479  52.3759756  21.9541973  18.1032526  54.6304068  17.9637858
  17.5397391  54.5394005  17.1954146  17.9884921  53.8103972  18.4440351
  22.7265494  53.9303443  27.9327173  22.7154134  53.5356241  27.0607676
  22.8886133  53.1969516  28.5260944  15.6496958  56.1255259  20.8022079
  16.4418250  55.7846084  20.3868378  15.8893608  56.2350234  21.7224232
  23.6832085  58.2975035  13.2752323  23.0320065  58.8829116  12.8886337
  24.4776448  58.8281230  13.3347361  17.6087712  55.3864172  13.6739457
  18.3818588  54.8393160  13.5352333  17.9613111  56.2508422  13.8853919
  19.4472755  56.7140555  26.8806357  19.1562621  57.6186186  26.7653023
  20.0829739  56.7557082  27.5950426  20.3728962  54.0917403  23.4707716
  20.9692534  53.8673426  22.7564679  20.4303933  53.3502149  24.0733164
  19.9453990  51.5456839  11.3057907  20.1979511  51.0238360  10.5441370
  19.0078549  51.3822984  11.4084591  24.9897273  50.5492617  19.1132651
  25.7760362  50.1312040  18.7623068  25.2535977  51.4538709  19.2814299
  25.1607350  55.9865467  13.8121307  24.5253183  56.0600094  14.5242212
  24.8304756  56.5759066  13.1340387  30.3905700  50.4867850  20.0165629
  31.1230872  49.9167067  20.2503459  29.6345056  50.0989451  20.4572135
  19.6650279  53.4484945  13.5082282  19.5486537  52.7729848  14.1763367
  19.7752539  52.9617318  12.6914435  22.0081820  52.9095092  17.2128972
  21.6440027  52.3825713  17.9241893  22.8648935  52.5193561  17.0395457
  27.9131120  44.1989424  24.4760238  27.5814445  45.0684835  24.2521453
  27.3176734  43.8825708  25.1554268  21.6487307  47.9384991  12.2090320
  21.8161709  48.8065228  12.5760791  21.4584476  48.1012273  11.2851609
  24.4062640  56.4001970  23.8756150  24.1063363  57.3027009  23.7671958
  24.0613699  56.1334153  24.7277303  17.8575121  52.8515767  19.9092855
  16.9325618  52.7191981  20.1170547  18.1059534  53.6309986  20.4062797
  27.8059784  48.9184510  21.5553588  26.8976661  48.8499919  21.2612349
  27.7547379  49.3956455  22.3835413  21.6276527  50.3942649  13.1936987
  21.5076153  50.8399700  14.0322467  20.9329116  50.7427966  12.6350525
  15.2183932  52.4949041  20.7436644  15.3476313  52.7483520  21.6576056
  14.5381384  53.0876749  20.4241299  19.3883420  63.1646291  16.8427118
  19.3107449  64.1154116  16.9215599  18.7845063  62.8192163  17.5002044
  21.8800649  50.3374156  29.4988485  21.1033983  50.8968076  29.4891350
  22.5191212  50.8230939  30.0203355  29.6721430  47.1200949  23.3331462
  29.0295810  47.4133482  22.6871256  29.1676358  47.0053869  24.1384658
  27.3261594  50.8664122  14.0217321  28.2379450  51.0991509  13.8465018
  26.8171241  51.4501166  13.4592400  20.1347022  53.1459609  29.0606452
  20.8761706  53.6844653  28.7841276  19.4284007  53.7725898  29.2178004
  25.6102361  55.2888750  27.6578614  26.0185717  54.8471160  26.9133246
  24.8879623  54.7141377  27.9112806  21.9633431  50.2261357  25.0312170
  22.8094626  50.6500770  25.1746819  21.9032069  49.5694981  25.7250734
  25.9331176  55.8489940  21.4130902  25.3040038  56.0135655  20.7106970
  25.5456838  56.2631550  22.1841866  29.8120408  56.7844378  18.7675266
  29.1271446  57.1643280  18.2172299  29.8964257  57.3939705  19.5007214
  25.1132877  47.8865725  26.6893344  24.8693809  48.6407785  26.1527620
  25.3892807  48.2651073  27.5240591  27.0671339  54.4304337  25.3670610
  27.2788235  55.0736097  24.6904991  27.0201088  53.5966654  24.8992540
  24.6697568  47.0422158  22.2707182  23.8082047  47.3403412  22.5623919
  24.6960003  47.2592557  21.3388214  21.4859138  55.5864349  18.6780988
  21.9497483  55.8652052  17.8885610  21.2215936  54.6847793  18.4954078
  18.3783219  55.1335830  21.6160751  18.9484576  55.5623098  20.9778235
  18.9691331  54.8518415  22.3144936  20.4228024  51.7087501  15.4870553
  21.1252067  52.1608545  15.9544479  20.0908652  51.0671320  16.1150446
  18.8708385  50.2999258  29.8621762  18.2407046  50.9815538  30.0957159
  18.7644473  50.1882339  28.9174900  14.1653358  49.9671054  20.7887686
  13.3752412  50.2228582  20.3127797  14.6564605  50.7819391  20.8939727
  28.1817167  57.3076293  23.5392967  29.0034611  56.9056480  23.2575649
  28.1779570  57.2044527  24.4909083  16.1168103  50.3315633  17.7471163
  15.3199266  50.4434327  18.2654659  15.8893695  50.6702285  16.8812053
  21.9473771  56.8560336  25.6953678  22.0118203  57.3180743  26.5311849
  21.2384695  56.2257701  25.8235987  12.4491061  50.2201544  23.2202677
  12.6999099  51.1048554  23.4860253  12.9850609  50.0406146  22.4477769
  36.2723160  53.6515041  19.8877939  35.5186869  53.0822439  19.7321943
  36.4070702  53.6177706  20.8348573  21.6621788  58.5228444  15.5632658
  21.5267463  59.3679979  15.9917506  22.2031601  58.7247721  14.7998592
  18.1489128  44.6020023  32.2247013  17.7556074  44.0486222  32.8994657
  18.9655268  44.9130602  32.6153531  15.1151186  56.0403882  16.1360583
  15.6275706  56.8347132  16.2866148  15.7673899  55.3430172  16.0694184
  16.9246071  59.1569638  18.2183336  17.1012699  60.0787603  18.0304320
  17.7202904  58.8428057  18.6477716  21.0657089  46.0177902  29.8167270
  21.8066802  46.6185056  29.7371732  21.2975012  45.2755540  29.2585312
  16.2098427  51.2034270  28.0945499  16.0951942  50.3019527  28.3952598
  15.3542945  51.4497966  27.7430316  23.2890265  59.1452010  29.6933000
  22.8454119  58.3588389  29.3753904  23.9507478  59.3331161  29.0276891
  18.0477386  60.6747812  24.2193678  18.5984811  60.5464875  23.4470672
  17.2088862  60.9742701  23.8688571  25.3871503  59.4254810  27.7214401
  25.3689978  60.2463691  27.2294670  26.3091423  59.3008885  27.9464542
  21.8444557  56.9398939  28.5637910  22.3772894  56.1787228  28.3337218
  21.3158638  56.6472591  29.3062064  25.0114252  42.0459005  24.0931551
  24.6678521  42.9360647  24.0170662  25.3793215  41.8560663  23.2301136
  13.0800103  54.3692536  16.9120153  13.9175325  54.7789544  16.6953861
  13.2578370  53.4291978  16.8820347  24.9764535  52.0367617  12.6003986
  24.4611158  52.8072221  12.8392374  24.7041843  51.3632753  13.2237048
  22.5611646  46.8817317  17.6589225  21.7053242  46.4924168  17.4794864
  22.9738598  46.9609278  16.7989010  24.0910792  44.4163661  22.0580785
  23.5875588  44.3793796  21.2448590  24.3841399  45.3256403  22.1177441
  20.3353678  44.5002390  21.0646966  21.2006675  44.3045199  20.7052856
  20.4031187  44.2712742  21.9916323  29.9498809  54.7899971  14.5357160
  29.1728252  54.4511131  14.0912322  30.6290290  54.7952594  13.8612125
  24.7650838  49.9094709  14.4263768  24.4600973  50.2240858  15.2773911
  25.7181280  49.9876129  14.4691101  23.2097270  56.0684932  16.0756722
  22.6818631  55.3337692  15.7629959  22.7084772  56.8459608  15.8296690
  28.1890116  54.2633952  21.1923768  27.5313790  54.9533214  21.2803897
  28.9930515  54.6530384  21.5357754  17.9415997  46.7304598  18.4363333
  18.5159749  46.5079780  17.7036526  18.5286980  46.7993293  19.1891934
  26.9995575  52.6178325  19.2427710  27.5127456  53.2508317  19.7449419
  27.6496798  52.0179521  18.8771070  18.2685584  48.7609059  12.4559218
  17.4322897  49.0983746  12.7768493  18.1290354  48.6258039  11.5186355
  20.2438665  43.6045847  17.1638403  19.5903077  43.2894864  16.5395017
  20.2019139  42.9821588  17.8898225  21.3549870  53.8865142   9.0791695
  20.4476932  53.6554396   9.2782844  21.8520902  53.0902761   9.2665676
  24.2617949  62.5962649  11.9988381  23.5879648  62.8994346  12.6073339
  24.6483771  63.3991730  11.6493838  23.4776405  50.0927781  21.4886050
  22.5598967  50.3142728  21.3307738  23.8936549  50.1674091  20.6297758
  24.2611453  51.4919196  16.6188730  25.0083272  52.0040594  16.3095852
  24.5303043  51.1703249  17.4793124  22.5338103  53.9877737  13.6015685
  21.6249323  53.7036770  13.6988154  22.5633187  54.4076816  12.7418992
  27.7657371  57.5984327  17.3706852  27.3119698  56.7575236  17.4272043
  27.1351337  58.2345725  17.7081632  26.7090290  48.5276313  18.6007520
  25.9713047  48.0153699  18.9317762  26.9617064  48.0876694  17.7890797
  26.2090310  59.4360823  18.3056670  26.5013284  59.9965880  17.5869036
  26.7188931  59.7289384  19.0609830  26.8101918  41.3052565  19.1949289
  27.1160794  40.4449928  18.9075204  27.5354522  41.8970185  18.9948283
  13.1026274  51.7083251  17.5830887  12.9050674  51.1152612  16.8581954
  12.5472938  51.4035461  18.3006826  21.0822997  51.6006358  19.7025480
  21.1371607  50.6480194  19.6267957  20.2714199  51.7565797  20.1866778
  22.2314191  55.5286481  10.9403763  21.7933621  54.8122340  10.4809401
  22.9724632  55.7562596  10.3788855  19.0215357  50.2183417  17.4615859
  18.2083223  50.5177588  17.8681051  19.5174352  49.8239106  18.1790341
  21.1723935  60.2141174  19.3950124  21.1300114  60.4402021  18.4658656
  22.0886634  59.9804549  19.5435925  24.6189569  50.6825242  26.2930753
  24.9738957  50.9096715  27.1525219  25.2661700  51.0143619  25.6708008
  30.3487306  53.8043678  16.9980082  30.2105205  53.9945274  16.0701271
  29.9923525  54.5663061  17.4548133  18.5129432  47.7901773  23.0777094
  19.1528811  47.6490532  22.3800057  17.6806963  47.5036286  22.7015696
  30.3756686  55.8720205  22.0091353  30.8093192  55.7795494  22.8574407
  31.0888266  55.8477705  21.3711369  19.2889736  57.0904203  19.1912086
  20.0830334  56.5954523  18.9894661  18.5781428  56.5622066  18.8279792
  24.1084580  59.4722299  23.5424454  24.1621603  60.0413235  24.3102170
  23.2399362  59.6424184  23.1778491  15.5972499  51.2347285  15.2671839
  14.6670088  51.1731741  15.4841801  15.6929971  50.7123238  14.4708480
  15.5158049  47.7602098  17.8550081  15.7764866  48.6747431  17.7459241
  16.3375221  47.2926540  18.0046694  16.9882974  49.1739855  25.0248905
  17.6606027  48.9657217  24.3761554  16.1612760  48.9761941  24.5854138
  31.2372235  55.9143905  24.5424239  31.4308125  56.8189716  24.7883514
  31.1372853  55.4551325  25.3762824  22.8908546  45.8001796  27.0414566
  22.2436461  46.4991746  26.9479043  23.6609561  46.2337940  27.4090814
  26.2987344  56.0650648  30.1165119  26.1472850  55.8361200  29.1995203
  26.2892023  57.0221250  30.1296464  23.0672680  53.6382561  25.1011386
  23.9964740  53.7893721  24.9280353  22.6463710  53.7266582  24.2460032
  21.8661012  57.6633225  22.8709923  21.7272098  57.2952010  23.7435862
  21.0775608  58.1780865  22.6993881  22.4609164  62.7642322  14.2135460
  22.6360920  62.2930365  15.0281083  21.7741952  63.3908088  14.4416721
  23.4166227  57.0414828  20.2598761  23.0816060  57.0015598  21.1556411
  22.9170173  56.3759544  19.7869171  17.3910471  52.4482458  25.7851342
  17.2530269  51.7162697  26.3862881  18.3015395  52.3591358  25.5035530
  26.3525419  54.3870862  10.5335821  25.7354589  53.6617691  10.4368874
  25.8841907  55.1480223  10.1902895  20.0192772  52.1602417  25.2735022
  20.7292390  51.5195610  25.2321640  19.9762080  52.4115312  26.1961203
  28.0079550  59.0969771  28.1941601  27.9492097  58.4128991  27.5272184
  28.4099069  59.8388761  27.7422227  18.7321706  49.1467635  27.0930662
  18.1959063  48.6958374  27.7452258  18.1438414  49.2813544  26.3501126
  17.0270249  65.9131685  20.9875320  17.2666847  66.5450209  21.6654339
  16.1839446  65.5619725  21.2740679  28.0096958  57.0609355  26.4255581
  27.1223736  56.7235276  26.5481980  28.5795509  56.3292386  26.6624346
   9.6626105  53.3933446  19.7498632  10.3497145  53.0795176  19.1619648
   9.5074234  54.2974811  19.4765884  14.4660827  48.2823643  24.1783656
  14.3819016  47.6749313  23.4434066  13.6443533  48.7732661  24.1793152
  21.5398111  61.7210807  23.3916824  21.4668283  62.5265779  23.9036129
  21.0975504  61.9202773  22.5664846  21.3287891  60.9582577  16.9019646
  20.5455413  61.5004257  16.9957870  22.0280636  61.4756557  17.3013887
  24.6384541  46.7677207  19.5453851  25.1353240  46.0147169  19.2254921
  23.8671522  46.8041523  18.9797060  32.4914298  52.4717572  21.1872143
  32.4804174  53.3542287  20.8166076  31.6231678  52.1189123  20.9926680
  23.9996795  61.6197641  25.5474983  24.7124767  62.2545106  25.4750884
  23.5086823  61.7161507  24.7314985  25.7214322  55.5248894  17.1192274
  24.7870600  55.6450356  16.9496979  25.8990990  54.6221360  16.8552284
  21.2219510  48.9094589  19.2725536  20.8517297  48.3565630  19.9606441
  21.7178602  48.3052723  18.7200536  29.1086873  51.3666213  17.6542309
  29.5747325  52.1994205  17.5802611  29.5594373  50.9011195  18.3587567
  19.0508708  59.3692085  26.3680554  19.7518168  60.0028567  26.5209948
  18.5803823  59.7106816  25.6076193  27.1763104  57.7110034  14.6528461
  27.4522948  57.5966629  15.5622335  26.3067603  57.3127519  14.6140634
  27.0803536  43.7346800  21.6933210  26.1666615  43.9651027  21.8615417
  27.5096637  43.8185244  22.5447242  26.8509994  51.9236692  24.1933104
  26.1981444  52.1712599  23.5385557  27.2290374  51.1100830  23.8595581
  23.8117168  61.9596385  18.2961274  23.9939563  61.1418041  18.7589027
  24.6350154  62.1764077  17.8586164  24.1459334  60.8864570  15.5576323
  24.6747100  60.3757025  14.9446485  24.4087553  60.5707100  16.4221856
  22.8997567  52.6656503  30.6799141  22.2238204  52.5650632  31.3501516
  23.7225201  52.5095717  31.1435138  14.6476426  58.9028440  23.3011656
  15.2329863  58.1572127  23.4339561  14.4501265  59.2132396  24.1848320
  17.5015081  61.9379687  18.3174099  16.8325457  62.4225815  17.8338139
  17.3627951  62.1848907  19.2317477   9.2394081  51.4734040  22.0216099
   9.2778180  50.9397630  22.8153218   8.7334374  50.9469245  21.4027077
  21.6420350  63.9723430  24.9156757  22.1938658  64.1355052  25.6805842
  21.9826543  64.5627868  24.2436782  16.6184843  46.3198580  25.5178642
  16.6826170  47.1813411  25.1056039  16.5551964  45.7072582  24.7851000
  16.0937116  48.3921713  29.1651676  16.7209155  48.0098790  29.7789200
  15.2365035  48.1735915  29.5307369  26.4931224  58.7984688  30.7705411
  27.0371128  59.4114646  30.2760366  25.9118069  59.3564266  31.2872424
  12.8702659  50.1998142  15.0970031  13.1656100  49.2908820  15.0437085
  11.9690694  50.1785881  14.7751033  24.7788737  61.9205406  21.9020439
  24.6539877  61.1195146  21.3931385  25.4367828  62.4151599  21.4134409
  16.3996906  48.2754138  21.0797579  15.6783491  48.8890106  20.9405053
  17.1890161  48.8111903  21.0014225  26.8423646  59.7214426  23.5299989
  25.8953981  59.6019777  23.4578316  27.1906419  58.8336924  23.6126251
  19.2023219  45.6108565  27.3538231  19.7257621  45.8570862  28.1164540
  18.9835552  46.4428600  26.9341369  14.5990500  47.8812240  15.2209356
  14.2703206  47.0009619  15.0384462  14.9529871  47.8259908  16.1085745
  23.8470079  59.5167142  19.7304342  23.6995041  58.5883850  19.9111912
  24.6723572  59.5387233  19.2461417  17.7132323  48.1685209  15.5884834
  18.0528396  48.6971131  14.8663442  18.1604444  48.5065616  16.3643400
  27.4504201  60.3395701  20.8169214  28.3750748  60.1338562  20.6793665
  27.2819504  60.0912102  21.7258556  20.4075764  46.5522260  25.0387902
  20.0672584  45.7530073  25.4408582  19.7014770  46.8523971  24.4664735
  21.0592236  43.6371573  23.4915225  21.8818305  43.1632051  23.3694115
  21.3030299  44.4162056  23.9913911  19.7000470  46.6659831  13.7878126
  20.4208833  47.0441084  13.2841843  19.0765775  47.3848708  13.8913104
  23.8431593  47.3704980  14.7236459  24.0595208  48.2529618  14.4225287
  23.3625660  46.9791193  13.9942101  18.5830815  50.3290693  21.3007203
  18.4375395  50.6430996  22.1931485  18.1056018  50.9475593  20.7478102
  20.4427198  47.3193241  21.3488093  20.4288766  46.4234334  21.0120391
  21.1599626  47.3263905  21.9826379  22.2953328  47.7530581  23.3941220
  22.0371106  48.6747652  23.3925551  21.7638369  47.3561016  24.0841684
  27.2399517  60.8581368  16.1731306  27.4136395  60.2927791  15.4205158
  27.7328408  61.6582263  15.9910796  13.0576477  52.8696038  24.2394865
  12.5129945  53.6455846  24.3715139  13.9355827  53.2166842  24.0813986
  19.8464094  46.2007621  16.6175663  19.9680005  45.2724268  16.8166551
  19.5566136  46.2146307  15.7053978  22.7155284  43.8862532  19.7542383
  22.7376981  43.9501865  18.7994362  23.1323343  43.0467041  19.9482889
  33.0938908  53.6217791  17.7921605  33.5370054  52.8725117  17.3940729
  32.2165419  53.6127928  17.4095337  28.2274690  60.1748133  13.2728204
  28.9225594  60.7954826  13.4915519  28.5697840  59.3243484  13.5480582
  13.8442499  51.9965934  27.1325021  13.1024235  52.1448569  27.7189652
  13.5235243  52.2574199  26.2691771  30.1266113  57.6247838  14.8015535
  30.6517437  57.9635111  14.0764855  30.0388465  56.6894854  14.6178669
  21.7886161  61.5381912  26.9305411  22.0973288  61.2931059  27.8028111
  22.5861643  61.7428551  26.4424282  21.8106773  63.6919822  19.1610788
  21.3711764  63.1996200  19.8543645  22.5614890  63.1492789  18.9202863
  14.2899112  59.8831363  19.1635416  15.1157132  59.5835134  18.7834060
  13.9393164  59.1138985  19.6125205  19.2580646  59.2357831  21.2333090
  18.6360655  58.5728536  20.9335317  19.9285512  59.2618963  20.5506737
  12.4907717  57.8017689  20.1224350  11.6539626  57.3739863  19.9408351
  12.4631363  57.9950132  21.0595141  19.3305173  47.7139619  30.8265596
  19.3793329  48.5901742  30.4443365  19.8727687  47.1717012  30.2537239
  29.8160019  58.2580742  30.1066733  29.0255562  58.2404881  29.5671232
  29.5793373  58.7969036  30.8615769  29.9357894  55.1073208  27.4199461
  29.9855899  54.9423216  28.3614984  29.8271817  54.2400467  27.0297342
  18.8194152  57.7861754  14.7091550  18.9682273  58.4697219  14.0558223
  19.6260596  57.7666844  15.2241006  27.2261656  51.0904136  28.7358768
  28.1271519  50.9510601  28.4442766  27.3009631  51.2558591  29.6756945
  21.5604461  48.4670991  27.5811954  20.6907771  48.7604557  27.3094543
  21.7963942  49.0511436  28.3019218  31.4376091  57.5270150  27.6641483
  31.1460899  57.8900130  28.5004944  30.8248222  56.8137158  27.4854815
  32.6371773  55.0923030  20.1844053  33.4718664  55.5312834  20.3481613
  32.7730902  54.6161683  19.3652299  29.6863279  52.6502765  26.1321541
  30.1617400  52.8430411  25.3240392  28.7628844  52.7061950  25.8864924
  16.5746785  53.8126932  15.7152619  16.3292827  52.9089262  15.9132829
  16.7442700  53.8144082  14.7732097  24.2643495  44.6850608  25.0977375
  24.7825439  45.4211635  24.7723863  23.9098628  44.9914601  25.9324134
  15.8442433  49.5455289  13.2138781  15.1511678  49.6199644  12.5578817
  15.5994185  48.7815633  13.7360297  24.5156089  41.1050891  20.6178271
  24.7957843  40.4374080  21.2438698  25.3006696  41.2979986  20.1052935
  22.3189558  60.2809885  12.1803298  21.7463525  60.9000072  11.7273769
  22.8922352  60.8309246  12.7143220  28.3864948  49.5268525  24.3649846
  29.3382371  49.6266622  24.3862070  28.2168398  48.7346793  24.8747931
  26.4079327  46.6124108  24.5509247  25.8129259  46.8929121  23.8555736
  26.1229024  47.1018009  25.3225988  25.5386818  60.5647035  13.3111880
  26.4717491  60.4992596  13.5144755  25.4510031  61.4003302  12.8526413
  28.1674834  59.8812905  10.2715827  28.0888466  59.5472769  11.1651585
  28.9884501  60.3734673  10.2707300  30.8653026  52.7474644  23.4792146
  30.8329346  51.8090645  23.6651830  31.4753649  52.8258681  22.7457971
  22.7036356  51.6170697   9.5219350  23.6495461  51.4876905   9.5907768
  22.3250601  50.8785359   9.9988778  31.0147514  49.5385688  23.5250429
  30.4986563  48.7544144  23.3380358  31.8987463  49.2104404  23.6896949
  28.6758241  43.2826703  19.4846242  28.4783062  42.9741792  20.3689574
  29.2857947  44.0088342  19.6144172  36.6829575  53.8090651  22.6198183
  37.4132964  53.5475939  23.1805886  36.0736521  53.0719373  22.6600251
  34.7644873  51.9498514  23.2172634  34.0378036  51.8154479  22.6089126
  34.3492159  52.2575342  24.0229352  22.5875049  55.6688443  30.9820007
  23.5078058  55.8467042  31.1760054  22.5524632  54.7244489  30.8299706
  11.8057214  50.8627037  19.9073282  11.4859998  50.0092345  19.6147656
  11.2590642  51.0775615  20.6631249  15.5837122  53.5789478  23.6242788
  15.8023131  54.5106586  23.6430822  15.9962895  53.2197453  24.4097592
  22.5041339  44.0857563  15.6118477  21.6942068  43.7404648  15.9873723
  23.1925756  43.7765107  16.2006088  24.4331888  43.1635610  17.2342773
  24.9862926  43.5831064  17.8932796  24.6701974  42.2371358  17.2765729
  20.4564987  49.1522684  33.0145537  20.3561714  50.1017041  32.9457628
  20.2386529  48.8240923  32.1421607  11.6745474  54.4829949  21.8766403
  10.9808945  54.0683901  21.3636358  12.4218465  54.5250485  21.2799822
  27.8110695  45.2736135  16.7421438  27.2309364  45.9320939  16.3599490
  27.5446627  44.4513480  16.3308855  26.2614261  44.6741193  18.9442758
  26.7614039  44.7857728  18.1357077  26.9049869  44.3702246  19.5843566
  20.3196257  52.5819823  31.8310599  19.8363339  53.3820183  32.0374488
  20.4057196  52.5927768  30.8778043  13.5882217  54.4148202  19.7532418
  13.5652905  54.5135890  18.8014301  13.8982853  55.2613353  20.0749584
  16.2469594  56.4724357  23.8679033  17.2012848  56.4408300  23.8008964
  16.0482118  56.0114981  24.6829259  16.8368977  55.0425473  26.4349830
  17.6561866  55.5369552  26.4584668  17.1105784  54.1257442  26.4067398
  26.5935573  47.4336226  15.7977786  25.7061428  47.7185876  15.5797981
  27.0089562  47.2729989  14.9505063  29.9450109  47.4582747  19.5132125
  30.7210499  47.9479199  19.7856742  29.2198243  47.8840801  19.9703995
  32.3822668  48.1710366  20.5706066  32.9767158  47.9306102  19.8599374
  32.4549251  47.4517497  21.1979602  14.6019823  62.0143977  20.8849230
  14.4674291  61.2544378  20.3187229  14.1851885  62.7384877  20.4178019
  25.7378786  57.1980900   9.8925806  26.4414636  57.4030903  10.5083461
  25.0141435  57.7657662  10.1574889  26.5676597  52.9490762  16.0128076
  26.5111798  53.4059313  15.1735708  27.1204939  52.1881446  15.8350919
  30.3781402  48.7380494  16.8378195  30.1218337  48.3377129  17.6686403
  29.7534270  49.4524288  16.7128335  34.6893740  51.4776567  19.3449487
  34.1293298  51.5469756  20.1181049  34.0837244  51.3017551  18.6248983
  17.7588949  62.9113294  21.0967673  17.6421333  63.8558726  20.9946363
  16.9381395  62.6086855  21.4853472  27.6465484  57.6363430  11.9424266
  28.4811088  57.2044628  11.7601741  27.4849827  57.4645443  12.8701160
  27.3011376  54.1395543  13.3080605  27.2460180  53.9739814  12.3669049
  26.6757431  54.8471576  13.4642795  12.0903891  49.3763607  27.1342027
  12.7362754  48.8662561  27.6229252  11.8821042  50.1132289  27.7085453
  24.6157283  56.4444455  32.6334168  25.4848443  56.6185107  32.2720803
  24.1364034  57.2638872  32.5109897  18.7843463  63.5641556  24.3123602
  19.6870710  63.5965166  24.6290096  18.5580833  62.6342007  24.3269937
  20.5397065  62.3172542  20.9733680  19.5892696  62.3174404  20.8598052
  20.8429551  61.5705277  20.4569715  24.4259621  40.2346429  17.1411860
  23.6592017  39.6804915  17.2868543  24.8370326  40.3068297  18.0026012
  16.4301382  46.5231224  31.2317042  17.2932843  46.1668029  31.4420366
  15.8566792  46.1845119  31.9192446  36.2749759  68.1533081  22.0379443
  36.9128169  68.0339828  21.3342783  36.1570602  69.1013925  22.0967395
  33.0839465  68.1060509  21.9740967  32.7457977  67.9901574  21.0861502
  33.9529233  67.7051674  21.9541973  28.9426281  69.9595985  17.9637858
  28.3791146  69.8685922  17.1954146  28.8278676  69.1395890  18.4440351
  33.5659248  69.2595361  27.9327173  33.5547889  68.8648159  27.0607676
  33.7279887  68.5261433  28.5260944  26.4890713  71.4547177  20.8022079
  27.2812005  71.1138002  20.3868378  26.7287363  71.5642152  21.7224232
  34.5225839  73.6266953  13.2752323  33.8713819  74.2121033  12.8886337
  35.3170202  74.1573148  13.3347361  28.4481467  70.7156090  13.6739457
  29.2212343  70.1685077  13.5352333  28.8006865  71.5800339  13.8853919
  30.2866509  72.0432472  26.8806357  29.9956375  72.9478103  26.7653023
  30.9223493  72.0849000  27.5950426  31.2122716  69.4209321  23.4707716
  31.8086288  69.1965343  22.7564679  31.2697688  68.6794066  24.0733164
  30.7847744  66.8748756  11.3057907  31.0373265  66.3530278  10.5441370
  29.8472303  66.7114902  11.4084591  35.8291027  65.8784535  19.1132651
  36.6154116  65.4603958  18.7623068  36.0929732  66.7830627  19.2814299
  36.0001105  71.3157385  13.8121307  35.3646938  71.3892011  14.5242212
  35.6698511  71.9050984  13.1340387  41.2299454  65.8159768  20.0165629
  41.9624626  65.2458985  20.2503459  40.4738810  65.4281368  20.4572135
  30.5044033  68.7776862  13.5082282  30.3880291  68.1021766  14.1763367
  30.6146293  68.2909236  12.6914435  32.8475574  68.2387009  17.2128972
  32.4833781  67.7117630  17.9241893  33.7042690  67.8485478  17.0395457
  38.7524875  59.5281342  24.4760238  38.4208199  60.3976753  24.2521453
  38.1570488  59.2117626  25.1554268  32.4881061  63.2676909  12.2090320
  32.6555463  64.1357145  12.5760791  32.2978230  63.4304191  11.2851609
  35.2456394  71.7293888  23.8756150  34.9457117  72.6318927  23.7671958
  34.9007454  71.4626071  24.7277303  28.6968876  68.1807685  19.9092855
  27.7719372  68.0483899  20.1170547  28.9453289  68.9601904  20.4062797
  38.6453538  64.2476428  21.5553588  37.7370415  64.1791837  21.2612349
  38.5941134  64.7248373  22.3835413  32.4670282  65.7234566  13.1936987
  32.3469907  66.1691617  14.0322467  31.7722870  66.0719884  12.6350525
  26.0577687  67.8240958  20.7436644  26.1870068  68.0775437  21.6576056
  25.3775138  68.4168666  20.4241299  30.2277174  78.4938208  16.8427118
  30.1501204  79.4446033  16.9215599  29.6238818  78.1484081  17.5002044
  32.7194404  65.6666074  29.4988485  31.9427738  66.2259994  29.4891350
  33.3584967  66.1522857  30.0203355  40.5115184  62.4492866  23.3331462
  39.8689565  62.7425400  22.6871256  40.0070113  62.3345787  24.1384658
  38.1655348  66.1956040  14.0217321  39.0773204  66.4283426  13.8465018
  37.6564995  66.7793084  13.4592400  30.9740776  68.4751527  29.0606452
  31.7155460  69.0136571  28.7841276  30.2677762  69.1017816  29.2178004
  36.4496116  70.6180668  27.6578614  36.8579472  70.1763078  26.9133246
  35.7273377  70.0433295  27.9112806  32.8027186  65.5553274  25.0312170
  33.6488381  65.9792688  25.1746819  32.7425823  64.8986899  25.7250734
  36.7724930  71.1781858  21.4130902  36.1433793  71.3427572  20.7106970
  36.3850592  71.5923468  22.1841866  40.6514162  72.1136296  18.7675266
  39.9665200  72.4935197  18.2172299  40.7358012  72.7231623  19.5007214
  35.9526631  63.2157643  26.6893344  35.7087563  63.9699703  26.1527620
  36.2286562  63.5942990  27.5240591  37.9065094  69.7596255  25.3670610
  38.1181989  70.4028015  24.6904991  37.8594842  68.9258572  24.8992540
  35.5091323  62.3714076  22.2707182  34.6475802  62.6695329  22.5623919
  35.5353757  62.5884475  21.3388214  32.3252892  70.9156266  18.6780988
  32.7891238  71.1943969  17.8885610  32.0609690  70.0139711  18.4954078
  29.2176973  70.4627748  21.6160751  29.7878330  70.8915016  20.9778235
  29.8085085  70.1810332  22.3144936  31.2621778  67.0379419  15.4870553
  31.9645822  67.4900462  15.9544479  30.9302407  66.3963237  16.1150446
  29.7102140  65.6291175  29.8621762  29.0800800  66.3107456  30.0957159
  29.6038228  65.5174257  28.9174900  25.0047112  65.2962971  20.7887686
  24.2146166  65.5520500  20.3127797  25.4958360  66.1111309  20.8939727
  39.0210922  72.6368210  23.5392967  39.8428366  72.2348398  23.2575649
  39.0173325  72.5336445  24.4909083  26.9561858  65.6607550  17.7471163
  26.1593021  65.7726245  18.2654659  26.7287450  65.9994203  16.8812053
  32.7867525  72.1852254  25.6953678  32.8511958  72.6472661  26.5311849
  32.0778449  71.5549619  25.8235987  23.2884815  65.5493462  23.2202677
  23.5392854  66.4340472  23.4860253  23.8244364  65.3698063  22.4477769
  47.1116915  68.9806959  19.8877939  46.3580623  68.4114357  19.7321943
  47.2464456  68.9469623  20.8348573  32.5015543  73.8520361  15.5632658
  32.3661218  74.6971897  15.9917506  33.0425355  74.0539639  14.7998592
  28.9882883  59.9311941  32.2247013  28.5949828  59.3778140  32.8994657
  29.8049023  60.2422520  32.6153531  25.9544940  71.3695799  16.1360583
  26.4669461  72.1639049  16.2866148  26.6067653  70.6722090  16.0694184
  27.7639825  74.4861556  18.2183336  27.9406453  75.4079520  18.0304320
  28.5596659  74.1719975  18.6477716  31.9050844  61.3469820  29.8167270
  32.6460557  61.9476973  29.7371732  32.1368766  60.6047458  29.2585312
  27.0492182  66.5326187  28.0945499  26.9345697  65.6311445  28.3952598
  26.1936699  66.7789884  27.7430316  34.1284019  74.4743928  29.6933000
  33.6847874  73.6880306  29.3753904  34.7901233  74.6623078  29.0276891
  28.8871140  76.0039729  24.2193678  29.4378566  75.8756793  23.4470672
  28.0482616  76.3034618  23.8688571  36.2265257  74.7546728  27.7214401
  36.2083733  75.5755609  27.2294670  37.1485177  74.6300803  27.9464542
  32.6838312  72.2690857  28.5637910  33.2166648  71.5079145  28.3337218
  32.1552393  71.9764509  29.3062064  35.8508007  57.3750923  24.0931551
  35.5072276  58.2652565  24.0170662  36.2186969  57.1852581  23.2301136
  23.9193857  69.6984454  16.9120153  24.7569079  70.1081462  16.6953861
  24.0972125  68.7583896  16.8820347  35.8158289  67.3659534  12.6003986
  35.3004913  68.1364139  12.8392374  35.5435598  66.6924670  13.2237048
  33.4005400  62.2109235  17.6589225  32.5446997  61.8216085  17.4794864
  33.8132352  62.2901196  16.7989010  34.9304547  59.7455578  22.0580785
  34.4269342  59.7085713  21.2448590  35.2235154  60.6548321  22.1177441
  31.1747433  59.8294308  21.0646966  32.0400430  59.6337117  20.7052856
  31.2424942  59.6004660  21.9916323  40.7892563  70.1191889  14.5357160
  40.0122006  69.7803048  14.0912322  41.4684044  70.1244512  13.8612125
  35.6044592  65.2386626  14.4263768  35.2994728  65.5532775  15.2773911
  36.5575035  65.3168046  14.4691101  34.0491024  71.3976850  16.0756722
  33.5212386  70.6629609  15.7629959  33.5478527  72.1751526  15.8296690
  39.0283870  69.5925870  21.1923768  38.3707545  70.2825131  21.2803897
  39.8324269  69.9822302  21.5357754  28.7809752  62.0596516  18.4363333
  29.3553504  61.8371697  17.7036526  29.3680734  62.1285210  19.1891934
  37.8389329  67.9470243  19.2427710  38.3521211  68.5800235  19.7449419
  38.4890553  67.3471438  18.8771070  29.1079339  64.0900977  12.4559218
  28.2716651  64.4275663  12.7768493  28.9684109  63.9549957  11.5186355
  31.0832420  58.9337765  17.1638403  30.4296832  58.6186782  16.5395017
  31.0412894  58.3113505  17.8898225  32.1943624  69.2157060   9.0791695
  31.2870686  68.9846313   9.2782844  32.6914656  68.4194679   9.2665676
  35.1011703  77.9254567  11.9988381  34.4273402  78.2286264  12.6073339
  35.4877525  78.7283647  11.6493838  34.3170160  65.4219698  21.4886050
  33.3992721  65.6434645  21.3307738  34.7330304  65.4966009  20.6297758
  35.1005208  66.8211114  16.6188730  35.8477027  67.3332511  16.3095852
  35.3696797  66.4995167  17.4793124  33.3731858  69.3169655  13.6015685
  32.4643077  69.0328688  13.6988154  33.4026942  69.7368733  12.7418992
  38.6051125  72.9276244  17.3706852  38.1513452  72.0867154  17.4272043
  37.9745092  73.5637643  17.7081632  37.5484045  63.8568230  18.6007520
  36.8106802  63.3445616  18.9317762  37.8010818  63.4168612  17.7890797
  37.0484065  74.7652741  18.3056670  37.3407039  75.3257798  17.5869036
  37.5582685  75.0581302  19.0609830  37.6495672  56.6344482  19.1949289
  37.9554549  55.7741846  18.9075204  38.3748277  57.2262102  18.9948283
  23.9420028  67.0375169  17.5830887  23.7444428  66.4444530  16.8581954
  23.3866692  66.7327379  18.3006826  31.9216752  66.9298275  19.7025480
  31.9765362  65.9772112  19.6267957  31.1107954  67.0857714  20.1866778
  33.0707946  70.8578398  10.9403763  32.6327376  70.1414257  10.4809401
  33.8118387  71.0854513  10.3788855  29.8609112  65.5475335  17.4615859
  29.0476977  65.8469506  17.8681051  30.3568106  65.1531024  18.1790341
  32.0117690  75.5433092  19.3950124  31.9693869  75.7693938  18.4658656
  32.9280389  75.3096467  19.5435925  35.4583324  66.0117160  26.2930753
  35.8132711  66.2388633  27.1525219  36.1055455  66.3435536  25.6708008
  41.1881060  69.1335595  16.9980082  41.0498959  69.3237191  16.0701271
  40.8317279  69.8954978  17.4548133  29.3523187  63.1193691  23.0777094
  29.9922566  62.9782450  22.3800057  28.5200717  62.8328204  22.7015696
  41.2150440  71.2012122  22.0091353  41.6486947  71.1087412  22.8574407
  41.9282021  71.1769623  21.3711369  30.1283490  72.4196121  19.1912086
  30.9224089  71.9246441  18.9894661  29.4175183  71.8913984  18.8279792
  34.9478335  74.8014217  23.5424454  35.0015357  75.3705153  24.3102170
  34.0793116  74.9716102  23.1778491  26.4366254  66.5639203  15.2671839
  25.5063842  66.5023658  15.4841801  26.5323726  66.0415156  14.4708480
  26.3551803  63.0894016  17.8550081  26.6158620  64.0039349  17.7459241
  27.1768975  62.6218458  18.0046694  27.8276728  64.5031773  25.0248905
  28.4999782  64.2949135  24.3761554  27.0006515  64.3053859  24.5854138
  42.0765990  71.2435823  24.5424239  42.2701880  72.1481634  24.7883514
  41.9766608  70.7843242  25.3762824  33.7302300  61.1293714  27.0414566
  33.0830215  61.8283663  26.9479043  34.5003316  61.5629858  27.4090814
  37.1381098  71.3942566  30.1165119  36.9866605  71.1653118  29.1995203
  37.1285778  72.3513167  30.1296464  33.9066435  68.9674479  25.1011386
  34.8358495  69.1185638  24.9280353  33.4857465  69.0558499  24.2460032
  32.7054766  72.9925143  22.8709923  32.5665852  72.6243927  23.7435862
  31.9169363  73.5072782  22.6993881  33.3002918  78.0934239  14.2135460
  33.4754674  77.6222283  15.0281083  32.6135706  78.7200006  14.4416721
  34.2559982  72.3706746  20.2598761  33.9209814  72.3307516  21.1556411
  33.7563927  71.7051462  19.7869171  28.2304226  67.7774376  25.7851342
  28.0924024  67.0454615  26.3862881  29.1409149  67.6883276  25.5035530
  37.1919173  69.7162780  10.5335821  36.5748344  68.9909608  10.4368874
  36.7235662  70.4772140  10.1902895  30.8586526  67.4894335  25.2735022
  31.5686145  66.8487527  25.2321640  30.8155834  67.7407230  26.1961203
  38.8473305  74.4261688  28.1941601  38.7885851  73.7420909  27.5272184
  39.2492823  75.1680678  27.7422227  29.5715460  64.4759553  27.0930662
  29.0352817  64.0250291  27.7452258  28.9832169  64.6105462  26.3501126
  27.8664004  81.2423602  20.9875320  28.1060602  81.8742126  21.6654339
  27.0233200  80.8911642  21.2740679  28.9817719  63.9348204   9.6557125
  28.1047186  63.8137005   9.2919372  29.4575472  63.1434283   9.4036014
  38.8490712  72.3901272  26.4255581  37.9617491  72.0527194  26.5481980
  39.4189263  71.6584304  26.6624346  20.5019859  68.7225364  19.7498632
  21.1890899  68.4087094  19.1619648  20.3467988  69.6266729  19.4765884
  25.3054581  63.6115561  24.1783656  25.2212770  63.0041230  23.4434066
  24.4837288  64.1024579  24.1793152  32.3791866  77.0502725  23.3916824
  32.3062037  77.8557696  23.9036129  31.9369259  77.2494691  22.5664846
  32.1681645  76.2874495  16.9019646  31.3849167  76.8296175  16.9957870
  32.8674390  76.8048474  17.3013887  35.4778295  62.0969124  19.5453851
  35.9746995  61.3439087  19.2254921  34.7065277  62.1333441  18.9797060
  43.3308053  67.8009490  21.1872143  43.3197929  68.6834205  20.8166076
  42.4625432  67.4481041  20.9926680  34.8390549  76.9489559  25.5474983
  35.5518521  77.5837024  25.4750884  34.3480578  77.0453425  24.7314985
  36.5608076  70.8540811  17.1192274  35.6264355  70.9742274  16.9496979
  36.7384744  69.9513278  16.8552284  32.0613264  64.2386507  19.2725536
  31.6911052  63.6857548  19.9606441  32.5572357  63.6344641  18.7200536
  39.9480627  66.6958131  17.6542309  40.4141080  67.5286122  17.5802611
  40.3988128  66.2303112  18.3587567  29.8902463  74.6984002  26.3680554
  30.5911922  75.3320485  26.5209948  29.4197578  75.0398734  25.6076193
  38.0156858  73.0401952  14.6528461  38.2916702  72.9258547  15.5622335
  37.1461357  72.6419437  14.6140634  37.9197290  59.0638718  21.6933210
  37.0060370  59.2942945  21.8615417  38.3490392  59.1477162  22.5447242
  37.6903749  67.2528610  24.1933104  37.0375199  67.5004517  23.5385557
  38.0684129  66.4392748  23.8595581  34.6510922  77.2888303  18.2961274
  34.8333317  76.4709959  18.7589027  35.4743909  77.5055995  17.8586164
  34.9853088  76.2156488  15.5576323  35.5140854  75.7048943  14.9446485
  35.2481308  75.8999018  16.4221856  33.7391322  67.9948421  30.6799141
  33.0631959  67.8942550  31.3501516  34.5618956  67.8387634  31.1435138
  25.4870181  74.2320357  23.3011656  26.0723618  73.4864045  23.4339561
  25.2895019  74.5424314  24.1848320  28.3408836  77.2671605  18.3174099
  27.6719211  77.7517732  17.8338139  28.2021706  77.5140825  19.2317477
  20.0787835  66.8025957  22.0216099  20.1171935  66.2689548  22.8153218
  19.5728128  66.2761163  21.4027077  32.4814105  79.3015348  24.9156757
  33.0332413  79.4646970  25.6805842  32.8220298  79.8919786  24.2436782
  27.4578598  61.6490498  25.5178642  27.5219924  62.5105329  25.1056039
  27.3945718  61.0364500  24.7851000  26.9330870  63.7213630  29.1651676
  27.5602909  63.3390708  29.7789200  26.0758789  63.5027832  29.5307369
  37.3324979  74.1276606  30.7705411  37.8764883  74.7406564  30.2760366
  36.7511824  74.6856184  31.2872424  23.7096413  65.5290060  15.0970031
  24.0049854  64.6200738  15.0437085  22.8084449  65.5077799  14.7751033
  35.6182492  77.2497324  21.9020439  35.4933631  76.4487064  21.3931385
  36.2761583  77.7443517  21.4134409  27.2390660  63.6046056  21.0797579
  26.5177246  64.2182024  20.9405053  28.0283916  64.1403821  21.0014225
  37.6817400  75.0506344  23.5299989  36.7347736  74.9311695  23.4578316
  38.0300173  74.1628842  23.6126251  30.0416974  60.9400483  27.3538231
  30.5651375  61.1862779  28.1164540  29.8229307  61.7720517  26.9341369
  25.4384255  63.2104157  15.2209356  25.1096961  62.3301536  15.0384462
  25.7923625  63.1551826  16.1085745  34.6863833  74.8459060  19.7304342
  34.5388796  73.9175767  19.9111912  35.5117327  74.8679151  19.2461417
  28.5526078  63.4977127  15.5884834  28.8922150  64.0263048  14.8663442
  28.9998198  63.8357533  16.3643400  38.2897955  75.6687619  20.8169214
  39.2144503  75.4630480  20.6793665  38.1213259  75.4204020  21.7258556
  31.2469519  61.8814178  25.0387902  30.9066339  61.0821991  25.4408582
  30.5408525  62.1815889  24.4664735  31.8985990  58.9663490  23.4915225
  32.7212060  58.4923968  23.3694115  32.1424054  59.7453974  23.9913911
  30.5394225  61.9951749  13.7878126  31.2602587  62.3733001  13.2841843
  29.9159529  62.7140625  13.8913104  34.6825348  62.6996898  14.7236459
  34.8988962  63.5821535  14.4225287  34.2019415  62.3083111  13.9942101
  29.4224569  65.6582611  21.3007203  29.2769150  65.9722914  22.1931485
  28.9449773  66.2767511  20.7478102  31.2820952  62.6485159  21.3488093
  31.2682521  61.7526252  21.0120391  31.9993380  62.6555823  21.9826379
  33.1347083  63.0822499  23.3941220  32.8764861  64.0039570  23.3925551
  32.6032123  62.6852934  24.0841684  38.0793272  76.1873286  16.1731306
  38.2530149  75.6219709  15.4205158  38.5722163  76.9874181  15.9910796
  23.8970231  68.1987955  24.2394865  23.3523699  68.9747763  24.3715139
  24.7749581  68.5458760  24.0813986  30.6857848  61.5299539  16.6175663
  30.8073759  60.6016185  16.8166551  30.3959890  61.5438225  15.7053978
  33.5549038  59.2154450  19.7542383  33.5770735  59.2793783  18.7994362
  33.9717097  58.3758958  19.9482889  43.9332663  68.9509709  17.7921605
  44.3763809  68.2017034  17.3940729  43.0559173  68.9419845  17.4095337
  39.0668444  75.5040051  13.2728204  39.7619349  76.1246743  13.4915519
  39.4091594  74.6535402  13.5480582  24.6836253  67.3257852  27.1325021
  23.9417989  67.4740487  27.7189652  24.3628997  67.5866117  26.2691771
  40.9659867  72.9539756  14.8015535  41.4911191  73.2927029  14.0764855
  40.8782220  72.0186771  14.6178669  32.6279916  76.8673830  26.9305411
  32.9367042  76.6222976  27.8028111  33.4255398  77.0720468  26.4424282
  32.6500528  79.0211739  19.1610788  32.2105518  78.5288118  19.8543645
  33.4008645  78.4784707  18.9202863  25.1292867  75.2123280  19.1635416
  25.9550887  74.9127052  18.7834060  24.7786919  74.4430903  19.6125205
  30.0974400  74.5649748  21.2333090  29.4754409  73.9020453  20.9335317
  30.7679267  74.5910880  20.5506737  23.3301472  73.1309607  20.1224350
  22.4933380  72.7031781  19.9408351  23.3025117  73.3242050  21.0595141
  30.1698928  63.0431536  30.8265596  30.2187083  63.9193659  30.4443365
  30.7121442  62.5008930  30.2537239  40.6553773  73.5872660  30.1066733
  39.8649317  73.5696799  29.5671232  40.4187128  74.1260953  30.8615769
  40.7751648  70.4365126  27.4199461  40.8249653  70.2715134  28.3614984
  40.6665572  69.5692385  27.0297342  29.6587907  73.1153672  14.7091550
  29.8076027  73.7989136  14.0558223  30.4654350  73.0958762  15.2241006
  38.0655411  66.4196054  28.7358768  38.9665273  66.2802519  28.4442766
  38.1403385  66.5850509  29.6756945  32.3998216  63.7962909  27.5811954
  31.5301525  64.0896475  27.3094543  32.6357696  64.3803354  28.3019218
  42.2769845  72.8562068  27.6641483  41.9854653  73.2192048  28.5004944
  41.6641976  72.1429076  27.4854815  43.4765527  70.4214947  20.1844053
  44.3112419  70.8604751  20.3481613  43.6124656  69.9453601  19.3652299
  40.5257033  67.9794682  26.1321541  41.0011155  68.1722329  25.3240392
  39.6022599  68.0353868  25.8864924  27.4140540  69.1418849  15.7152619
  27.1686582  68.2381179  15.9132829  27.5836454  69.1436000  14.7732097
  35.1037250  60.0142526  25.0977375  35.6219194  60.7503553  24.7723863
  34.7492383  60.3206519  25.9324134  26.6836187  64.8747207  13.2138781
  25.9905432  64.9491562  12.5578817  26.4387939  64.1107551  13.7360297
  35.3549844  56.4342808  20.6178271  35.6351598  55.7665997  21.2438698
  36.1400451  56.6271904  20.1052935  33.1583312  75.6101802  12.1803298
  32.5857280  76.2291989  11.7273769  33.7316106  76.1601164  12.7143220
  39.2258702  64.8560442  24.3649846  40.1776125  64.9558540  24.3862070
  39.0562153  64.0638711  24.8747931  37.2473082  61.9416026  24.5509247
  36.6523014  62.2221038  23.8555736  36.9622778  62.4309926  25.3225988
  36.3780572  75.8938952  13.3111880  37.3111245  75.8284514  13.5144755
  36.2903785  76.7295219  12.8526413  39.0068589  75.2104823  10.2715827
  38.9282220  74.8764686  11.1651585  39.8278256  75.7026591  10.2707300
  41.7046780  68.0766562  23.4792146  41.6723100  67.1382563  23.6651830
  42.3147404  68.1550599  22.7457971  33.5430111  66.9462615   9.5219350
  34.4889216  66.8168823   9.5907768  33.1644356  66.2077277   9.9988778
  41.8541269  64.8677605  23.5250429  41.3380317  64.0836062  23.3380358
  42.7381217  64.5396322  23.6896949  39.5151996  58.6118621  19.4846242
  39.3176817  58.3033709  20.3689574  40.1251701  59.3380260  19.6144172
  47.5223330  69.1382569  22.6198183  48.2526718  68.8767857  23.1805886
  46.9130275  68.4011291  22.6600251  45.6038627  67.2790431  23.2172634
  44.8771791  67.1446396  22.6089126  45.1885914  67.5867260  24.0229352
  33.4268804  70.9980361  30.9820007  34.3471813  71.1758960  31.1760054
  33.3918387  70.0536406  30.8299706  31.7273028  64.8712591   9.4574235
  30.8204484  64.5745704   9.5336949  32.0049009  64.5742409   8.5908522
  22.6450969  66.1918955  19.9073282  22.3253753  65.3384263  19.6147656
  22.0984397  66.4067533  20.6631249  26.4230876  68.9081396  23.6242788
  26.6416886  69.8398504  23.6430822  26.8356650  68.5489370  24.4097592
  33.3435094  59.4149481  15.6118477  32.5335822  59.0696566  15.9873723
  34.0319511  59.1057025  16.2006088  35.2725642  58.4927528  17.2342773
  35.8256681  58.9122981  17.8932796  35.5095729  57.5663276  17.2765729
  31.2958741  64.4814602  33.0145537  31.1955468  65.4308959  32.9457628
  31.0780283  64.1532840  32.1421607  30.4971813  61.7299527   9.5986215
  31.3590977  62.0554425   9.8582032  30.6822157  60.9431023   9.0859280
  22.5139229  69.8121866  21.8766403  21.8202700  69.3975819  21.3636358
  23.2612220  69.8542403  21.2799822  38.6504449  60.6028053  16.7421438
  38.0703118  61.2612857  16.3599490  38.3840382  59.7805398  16.3308855
  37.1008016  60.0033111  18.9442758  37.6007794  60.1149645  18.1357077
  37.7443624  59.6994164  19.5843566  31.1590011  67.9111740  31.8310599
  30.6757093  68.7112100  32.0374488  31.2450950  67.9219685  30.8778043
  24.4275971  69.7440120  19.7532418  24.4046659  69.8427807  18.8014301
  24.7376608  70.5905271  20.0749584  27.0863349  71.8016275  23.8679033
  28.0406602  71.7700217  23.8008964  26.8875872  71.3406899  24.6829259
  27.6762731  70.3717391  26.4349830  28.4955620  70.8661470  26.4584668
  27.9499539  69.4549359  26.4067398  37.4329327  62.7628143  15.7977786
  36.5455182  63.0477794  15.5797981  37.8483316  62.6021907  14.9505063
  40.7843863  62.7874664  19.5132125  41.5604253  63.2771117  19.7856742
  40.0591998  63.2132719  19.9703995  43.2216422  63.5002284  20.5706066
  43.8160913  63.2598020  19.8599374  43.2943006  62.7809414  21.1979602
  25.4413578  77.3435895  20.8849230  25.3068046  76.5836295  20.3187229
  25.0245640  78.0676794  20.4178019  36.5772541  72.5272818   9.8925806
  37.2808391  72.7322821  10.5083461  35.8535189  73.0949580  10.1574889
  37.4070351  68.2782679  16.0128076  37.3505552  68.7351231  15.1735708
  37.9598693  67.5173364  15.8350919  41.2175157  64.0672411  16.8378195
  40.9612091  63.6669047  17.6686403  40.5928025  64.7816205  16.7128335
  45.5287495  66.8068484  19.3449487  44.9687053  66.8761674  20.1181049
  44.9230998  66.6309469  18.6248983  28.5982704  78.2405212  21.0967673
  28.4815088  79.1850644  20.9946363  27.7775150  77.9378773  21.4853472
  38.4859238  72.9655347  11.9424266  39.3204842  72.5336546  11.7601741
  38.3243581  72.7937361  12.8701160  38.1405130  69.4687461  13.3080605
  38.0853934  69.3031732  12.3669049  37.5151186  70.1763494  13.4642795
  22.9297645  64.7055525  27.1342027  23.5756509  64.1954479  27.6229252
  22.7214796  65.4424207  27.7085453  35.4551037  71.7736372  32.6334168
  36.3242197  71.9477025  32.2720803  34.9757789  72.5930789  32.5109897
  31.4501256  58.9695570  12.8865924  31.4379926  59.9137410  13.0434194
  32.3424678  58.7865715  12.5925385  29.6237218  78.8933473  24.3123602
  30.5264464  78.9257084  24.6290096  29.3974588  77.9633924  24.3269937
  31.3790820  77.6464460  20.9733680  30.4286451  77.6466322  20.8598052
  31.6823306  76.8997195  20.4569715  35.2653375  55.5638346  17.1411860
  34.4985771  55.0096833  17.2868543  35.6764080  55.6360215  18.0026012
  27.2695136  61.8523142  31.2317042  28.1326598  61.4959947  31.4420366
  26.6960547  61.5137037  31.9192446  47.1143513  83.4824998  22.0379443
  47.7521923  83.3631746  21.3342783  46.9964356  84.4305842  22.0967395
  43.9233219  83.4352427  21.9740967  43.5851731  83.3193491  21.0861502
  44.7922988  83.0343592  21.9541973  39.7820035  85.2887903  17.9637858
  39.2184900  85.1977840  17.1954146  39.6672430  84.4687807  18.4440351
  44.4053002  84.5887278  27.9327173  44.3941643  84.1940077  27.0607676
  44.5673642  83.8553351  28.5260944  37.3284467  86.7839095  20.8022079
  38.1205759  86.4429919  20.3868378  37.5681117  86.8934070  21.7224232
  45.3619594  88.9558871  13.2752323  44.7107574  89.5412951  12.8886337
  46.1563957  89.4865066  13.3347361  39.2875221  86.0448008  13.6739457
  40.0606097  85.4976995  13.5352333  39.6400620  86.9092257  13.8853919
  41.1260264  87.3724390  26.8806357  40.8350130  88.2770021  26.7653023
  41.7617248  87.4140918  27.5950426  42.0516470  84.7501239  23.4707716
  42.6480043  84.5257261  22.7564679  42.1091442  84.0085984  24.0733164
  41.6241499  82.2040674  11.3057907  41.8767020  81.6822195  10.5441370
  40.6866058  82.0406819  11.4084591  46.6684782  81.2076452  19.1132651
  47.4547871  80.7895875  18.7623068  46.9323486  82.1122544  19.2814299
  46.8394859  86.6449303  13.8121307  46.2040692  86.7183929  14.5242212
  46.5092265  87.2342901  13.1340387  52.0693209  81.1451685  20.0165629
  52.8018381  80.5750902  20.2503459  51.3132565  80.7573286  20.4572135
  41.3437788  84.1068780  13.5082282  41.2274046  83.4313683  14.1763367
  41.4540048  83.6201154  12.6914435  43.6869329  83.5678927  17.2128972
  43.3227536  83.0409548  17.9241893  44.5436444  83.1777396  17.0395457
  49.5918629  74.8573260  24.4760238  49.2601954  75.7268671  24.2521453
  48.9964243  74.5409544  25.1554268  43.3274816  78.5968827  12.2090320
  43.4949218  79.4649063  12.5760791  43.1371985  78.7596108  11.2851609
  46.0850149  87.0585806  23.8756150  45.7850872  87.9610844  23.7671958
  45.7401208  86.7917989  24.7277303  39.5362630  83.5099602  19.9092855
  38.6113127  83.3775817  20.1170547  39.7847043  84.2893822  20.4062797
  49.4847293  79.5768346  21.5553588  48.5764170  79.5083754  21.2612349
  49.4334888  80.0540291  22.3835413  43.3064036  81.0526484  13.1936987
  43.1863662  81.4983535  14.0322467  42.6116625  81.4011802  12.6350525
  36.8971441  83.1532876  20.7436644  37.0263822  83.4067355  21.6576056
  36.2168893  83.7460584  20.4241299  41.0670929  93.8230126  16.8427118
  40.9894958  94.7737951  16.9215599  40.4632572  93.4775998  17.5002044
  43.5588158  80.9957991  29.4988485  42.7821492  81.5551911  29.4891350
  44.1978721  81.4814774  30.0203355  51.3508939  77.7784784  23.3331462
  50.7083319  78.0717317  22.6871256  50.8463867  77.6637704  24.1384658
  49.0049103  81.5247957  14.0217321  49.9166959  81.7575344  13.8465018
  48.4958750  82.1085002  13.4592400  41.8134531  83.8043445  29.0606452
  42.5549215  84.3428489  28.7841276  41.1071516  84.4309733  29.2178004
  47.2889870  85.9472585  27.6578614  47.6973226  85.5054996  26.9133246
  46.5667132  85.3725213  27.9112806  43.6420940  80.8845192  25.0312170
  44.4882135  81.3084606  25.1746819  43.5819578  80.2278816  25.7250734
  47.6118685  86.5073776  21.4130902  46.9827547  86.6719490  20.7106970
  47.2244347  86.9215385  22.1841866  51.4907917  87.4428214  18.7675266
  50.8058955  87.8227115  18.2172299  51.5751766  88.0523540  19.5007214
  46.7920386  78.5449560  26.6893344  46.5481317  79.2991621  26.1527620
  47.0680316  78.9234908  27.5240591  48.7458848  85.0888173  25.3670610
  48.9575744  85.7319933  24.6904991  48.6988597  84.2550489  24.8992540
  46.3485077  77.7005993  22.2707182  45.4869556  77.9987247  22.5623919
  46.3747512  77.9176392  21.3388214  43.1646647  86.2448184  18.6780988
  43.6284992  86.5235887  17.8885610  42.9003445  85.3431628  18.4954078
  40.0570728  85.7919665  21.6160751  40.6272085  86.2206934  20.9778235
  40.6478840  85.5102250  22.3144936  42.1015533  82.3671336  15.4870553
  42.8039576  82.8192380  15.9544479  41.7696161  81.7255155  16.1150446
  40.5495894  80.9583093  29.8621762  39.9194555  81.6399374  30.0957159
  40.4431982  80.8466174  28.9174900  35.8440867  80.6254889  20.7887686
  35.0539921  80.8812417  20.3127797  36.3352114  81.4403227  20.8939727
  49.8604676  87.9660128  23.5392967  50.6822120  87.5640315  23.2575649
  49.8567079  87.8628362  24.4909083  37.7955612  80.9899468  17.7471163
  36.9986775  81.1018162  18.2654659  37.5681204  81.3286120  16.8812053
  43.6261280  87.5144171  25.6953678  43.6905712  87.9764579  26.5311849
  42.9172204  86.8841536  25.8235987  34.1278570  80.8785379  23.2202677
  34.3786608  81.7632389  23.4860253  34.6638118  80.6989981  22.4477769
  57.9510669  84.3098877  19.8877939  57.1974378  83.7406275  19.7321943
  58.0858211  84.2761541  20.8348573  43.3409297  89.1812279  15.5632658
  43.2054972  90.0263815  15.9917506  43.8819110  89.3831557  14.7998592
  39.8276637  75.2603859  32.2247013  39.4343583  74.7070057  32.8994657
  40.6442777  75.5714437  32.6153531  36.7938695  86.6987717  16.1360583
  37.3063215  87.4930967  16.2866148  37.4461408  86.0014007  16.0694184
  38.6033580  89.8153473  18.2183336  38.7800208  90.7371438  18.0304320
  39.3990413  89.5011892  18.6477716  42.7444598  76.6761738  29.8167270
  43.4854311  77.2768891  29.7371732  42.9762521  75.9339376  29.2585312
  37.8885936  81.8618105  28.0945499  37.7739451  80.9603362  28.3952598
  37.0330454  82.1081802  27.7430316  44.9677774  89.8035845  29.6933000
  44.5241628  89.0172224  29.3753904  45.6294987  89.9914996  29.0276891
  39.7264895  91.3331647  24.2193678  40.2772320  91.2048710  23.4470672
  38.8876371  91.6326536  23.8688571  47.0659012  90.0838645  27.7214401
  47.0477487  90.9047526  27.2294670  47.9878932  89.9592721  27.9464542
  43.5232066  87.5982775  28.5637910  44.0560403  86.8371063  28.3337218
  42.9946147  87.3056427  29.3062064  46.6901761  72.7042841  24.0931551
  46.3466030  73.5944482  24.0170662  47.0580724  72.5144498  23.2301136
  34.7587612  85.0276371  16.9120153  35.5962834  85.4373380  16.6953861
  34.9365879  84.0875813  16.8820347  46.6552044  82.6951452  12.6003986
  46.1398667  83.4656057  12.8392374  46.3829352  82.0216588  13.2237048
  44.2399155  77.5401153  17.6589225  43.3840751  77.1508003  17.4794864
  44.6526107  77.6193113  16.7989010  45.7698301  75.0747496  22.0580785
  45.2663097  75.0377631  21.2448590  46.0628908  75.9840239  22.1177441
  42.0141187  75.1586226  21.0646966  42.8794184  74.9629034  20.7052856
  42.0818696  74.9296577  21.9916323  51.6286318  85.4483807  14.5357160
  50.8515761  85.1094966  14.0912322  52.3077799  85.4536430  13.8612125
  46.4438347  80.5678544  14.4263768  46.1388482  80.8824693  15.2773911
  47.3968789  80.6459964  14.4691101  44.8884779  86.7268767  16.0756722
  44.3606140  85.9921527  15.7629959  44.3872281  87.5043444  15.8296690
  49.8677625  84.9217788  21.1923768  49.2101299  85.6117049  21.2803897
  50.6718024  85.3114220  21.5357754  39.6203506  77.3888434  18.4363333
  40.1947258  77.1663615  17.7036526  40.2074489  77.4577128  19.1891934
  48.6783084  83.2762160  19.2427710  49.1914965  83.9092152  19.7449419
  49.3284307  82.6763356  18.8771070  39.9473093  79.4192895  12.4559218
  39.1110406  79.7567581  12.7768493  39.8077863  79.2841874  11.5186355
  41.9226174  74.2629682  17.1638403  41.2690586  73.9478700  16.5395017
  41.8806648  73.6405423  17.8898225  43.0337379  84.5448978   9.0791695
  42.1264441  84.3138231   9.2782844  43.5308411  83.7486597   9.2665676
  45.9405458  93.2546485  11.9988381  45.2667157  93.5578181  12.6073339
  46.3271280  94.0575565  11.6493838  45.1563914  80.7511616  21.4886050
  44.2386476  80.9726563  21.3307738  45.5724058  80.8257926  20.6297758
  45.9398962  82.1503032  16.6188730  46.6870781  82.6624429  16.3095852
  46.2090552  81.8287084  17.4793124  44.2125612  84.6461572  13.6015685
  43.3036832  84.3620605  13.6988154  44.2420696  85.0660651  12.7418992
  49.4444880  88.2568162  17.3706852  48.9907207  87.4159072  17.4272043
  48.8138846  88.8929560  17.7081632  48.3877799  79.1860148  18.6007520
  47.6500556  78.6737534  18.9317762  48.6404573  78.7460530  17.7890797
  47.8877819  90.0944659  18.3056670  48.1800793  90.6549716  17.5869036
  48.3976440  90.3873220  19.0609830  48.4889427  71.9636400  19.1949289
  48.7948303  71.1033763  18.9075204  49.2142031  72.5554020  18.9948283
  34.7813783  82.3667087  17.5830887  34.5838183  81.7736447  16.8581954
  34.2260447  82.0619297  18.3006826  42.7610506  82.2590193  19.7025480
  42.8159116  81.3064029  19.6267957  41.9501708  82.4149632  20.1866778
  43.9101700  86.1870316  10.9403763  43.4721130  85.4706175  10.4809401
  44.6512141  86.4146431  10.3788855  40.7002866  80.8767253  17.4615859
  39.8870732  81.1761423  17.8681051  41.1961860  80.4822942  18.1790341
  42.8511444  90.8725010  19.3950124  42.8087623  91.0985856  18.4658656
  43.7674143  90.6388384  19.5435925  46.2977078  81.3409077  26.2930753
  46.6526466  81.5680550  27.1525219  46.9449209  81.6727454  25.6708008
  52.0274815  84.4627513  16.9980082  51.8892714  84.6529109  16.0701271
  51.6711034  85.2246896  17.4548133  40.1916941  78.4485608  23.0777094
  40.8316320  78.3074367  22.3800057  39.3594472  78.1620122  22.7015696
  52.0544195  86.5304040  22.0091353  52.4880701  86.4379329  22.8574407
  52.7675775  86.5061541  21.3711369  40.9677245  87.7488039  19.1912086
  41.7617843  87.2538359  18.9894661  40.2568937  87.2205902  18.8279792
  45.7872089  90.1306134  23.5424454  45.8409112  90.6997071  24.3102170
  44.9186871  90.3008019  23.1778491  37.2760008  81.8931120  15.2671839
  36.3457597  81.8315576  15.4841801  37.3717480  81.3707073  14.4708480
  37.1945557  78.4185933  17.8550081  37.4552375  79.3331267  17.7459241
  38.0162730  77.9510376  18.0046694  38.6670483  79.8323690  25.0248905
  39.3393536  79.6241053  24.3761554  37.8400269  79.6345776  24.5854138
  52.9159744  86.5727741  24.5424239  53.1095634  87.4773551  24.7883514
  52.8160362  86.1135160  25.3762824  44.5696055  76.4585631  27.0414566
  43.9223970  77.1575581  26.9479043  45.3397070  76.8921775  27.4090814
  47.9774853  86.7234484  30.1165119  47.8260359  86.4945035  29.1995203
  47.9679532  87.6805085  30.1296464  44.7460189  84.2966396  25.1011386
  45.6752249  84.4477556  24.9280353  44.3251219  84.3850417  24.2460032
  43.5448521  88.3217061  22.8709923  43.4059607  87.9535845  23.7435862
  42.7563117  88.8364700  22.6993881  44.1396673  93.4226157  14.2135460
  44.3148429  92.9514200  15.0281083  43.4529461  94.0491923  14.4416721
  45.0953736  87.6998663  20.2598761  44.7603569  87.6599433  21.1556411
  44.5957682  87.0343379  19.7869171  39.0697980  83.1066293  25.7851342
  38.9317778  82.3746532  26.3862881  39.9802904  83.0175194  25.5035530
  48.0312928  85.0454698  10.5335821  47.4142098  84.3201526  10.4368874
  47.5629416  85.8064058  10.1902895  41.6980281  82.8186253  25.2735022
  42.4079899  82.1779445  25.2321640  41.6549589  83.0699148  26.1961203
  49.6867059  89.7553606  28.1941601  49.6279606  89.0712826  27.5272184
  50.0886578  90.4972596  27.7422227  40.4109215  79.8051471  27.0930662
  39.8746572  79.3542209  27.7452258  39.8225923  79.9397379  26.3501126
  38.7057758  96.5715520  20.9875320  38.9454356  97.2034044  21.6654339
  37.8626955  96.2203560  21.2740679  39.8211474  79.2640122   9.6557125
  38.9440940  79.1428923   9.2919372  40.2969227  78.4726200   9.4036014
  49.6884467  87.7193190  26.4255581  48.8011245  87.3819112  26.5481980
  50.2583018  86.9876221  26.6624346  31.3413614  84.0517282  19.7498632
  32.0284654  83.7379012  19.1619648  31.1861743  84.9558646  19.4765884
  36.1448336  78.9407478  24.1783656  36.0606525  78.3333148  23.4434066
  35.3231042  79.4316497  24.1793152  43.2185620  92.3794642  23.3916824
  43.1455792  93.1849614  23.9036129  42.7763013  92.5786608  22.5664846
  43.0075400  91.6166412  16.9019646  42.2242922  92.1588093  16.9957870
  43.7068145  92.1340392  17.3013887  46.3172050  77.4261042  19.5453851
  46.8140749  76.6731004  19.2254921  45.5459031  77.4625359  18.9797060
  54.1701807  83.1301407  21.1872143  54.1591683  84.0126123  20.8166076
  53.3019187  82.7772958  20.9926680  45.6784304  92.2781476  25.5474983
  46.3912276  92.9128941  25.4750884  45.1874332  92.3745342  24.7314985
  47.4001831  86.1832729  17.1192274  46.4658109  86.3034192  16.9496979
  47.5778499  85.2805196  16.8552284  42.9007019  79.5678425  19.2725536
  42.5304806  79.0149465  19.9606441  43.3966111  78.9636558  18.7200536
  50.7874382  82.0250048  17.6542309  51.2534834  82.8578040  17.5802611
  51.2381882  81.5595030  18.3587567  40.7296217  90.0275920  26.3680554
  41.4305677  90.6612403  26.5209948  40.2591332  90.3690651  25.6076193
  48.8550613  88.3693870  14.6528461  49.1310457  88.2550464  15.5622335
  47.9855112  87.9711354  14.6140634  48.7591045  74.3930635  21.6933210
  47.8454124  74.6234862  21.8615417  49.1884146  74.4769079  22.5447242
  48.5297503  82.5820527  24.1933104  47.8768953  82.8296435  23.5385557
  48.9077883  81.7684666  23.8595581  45.4904677  92.6180220  18.2961274
  45.6727072  91.8001876  18.7589027  46.3137663  92.8347913  17.8586164
  45.8246842  91.5448406  15.5576323  46.3534609  91.0340860  14.9446485
  46.0875062  91.2290936  16.4221856  44.5785076  83.3240338  30.6799141
  43.9025713  83.2234468  31.3501516  45.4012710  83.1679552  31.1435138
  36.3263935  89.5612275  23.3011656  36.9117372  88.8155963  23.4339561
  36.1288774  89.8716232  24.1848320  39.1802590  92.5963522  18.3174099
  38.5112966  93.0809650  17.8338139  39.0415460  92.8432743  19.2317477
  30.9181590  82.1317875  22.0216099  30.9565689  81.5981466  22.8153218
  30.4121883  81.6053081  21.4027077  43.3207859  94.6307266  24.9156757
  43.8726167  94.7938887  25.6805842  43.6614052  95.2211704  24.2436782
  38.2972352  76.9782416  25.5178642  38.3613679  77.8397247  25.1056039
  38.2339472  76.3656417  24.7851000  37.7724625  79.0505548  29.1651676
  38.3996664  78.6682625  29.7789200  36.9152544  78.8319750  29.5307369
  48.1718733  89.4568523  30.7705411  48.7158637  90.0698482  30.2760366
  47.5905578  90.0148102  31.2872424  34.5490168  80.8581977  15.0970031
  34.8443609  79.9492656  15.0437085  33.6478203  80.8369717  14.7751033
  46.4576246  92.5789241  21.9020439  46.3327386  91.7778981  21.3931385
  47.1155337  93.0735435  21.4134409  38.0784415  78.9337974  21.0797579
  37.3571000  79.5473942  20.9405053  38.8677670  79.4695739  21.0014225
  48.5211155  90.3798261  23.5299989  47.5741490  90.2603613  23.4578316
  48.8693928  89.4920759  23.6126251  40.8810728  76.2692400  27.3538231
  41.4045130  76.5154697  28.1164540  40.6623061  77.1012435  26.9341369
  36.2778009  78.5396075  15.2209356  35.9490715  77.6593454  15.0384462
  36.6317380  78.4843744  16.1085745  45.5257588  90.1750978  19.7304342
  45.3782550  89.2467685  19.9111912  46.3511081  90.1971068  19.2461417
  39.3919832  78.8269045  15.5884834  39.7315905  79.3554966  14.8663442
  39.8391953  79.1649451  16.3643400  49.1291710  90.9979536  20.8169214
  50.0538257  90.7922398  20.6793665  48.9607013  90.7495938  21.7258556
  42.0863273  77.2106095  25.0387902  41.7460093  76.4113909  25.4408582
  41.3802279  77.5107806  24.4664735  42.7379745  74.2955408  23.4915225
  43.5605814  73.8215886  23.3694115  42.9817808  75.0745892  23.9913911
  41.3787979  77.3243666  13.7878126  42.0996342  77.7024919  13.2841843
  40.7553284  78.0432543  13.8913104  45.5219102  78.0288815  14.7236459
  45.7382717  78.9113453  14.4225287  45.0413169  77.6375029  13.9942101
  40.2618324  80.9874529  21.3007203  40.1162904  81.3014832  22.1931485
  39.7843527  81.6059429  20.7478102  42.1214707  77.9777077  21.3488093
  42.1076275  77.0818170  21.0120391  42.8387135  77.9847740  21.9826379
  43.9740837  78.4114417  23.3941220  43.7158615  79.3331487  23.3925551
  43.4425878  78.0144851  24.0841684  48.9187026  91.5165204  16.1731306
  49.0923904  90.9511626  15.4205158  49.4115917  92.3166099  15.9910796
  34.7363986  83.5279873  24.2394865  34.1917454  84.3039681  24.3715139
  35.6143336  83.8750677  24.0813986  41.5251602  76.8591457  16.6175663
  41.6467514  75.9308103  16.8166551  41.2353645  76.8730143  15.7053978
  44.3942793  74.5446367  19.7542383  44.4164490  74.6085700  18.7994362
  44.8110852  73.7050876  19.9482889  54.7726417  84.2801627  17.7921605
  55.2157563  83.5308952  17.3940729  53.8952927  84.2711763  17.4095337
  49.9062199  90.8331968  13.2728204  50.6013103  91.4538661  13.4915519
  50.2485349  89.9827319  13.5480582  35.5230008  82.6549769  27.1325021
  34.7811744  82.8032405  27.7189652  35.2022752  82.9158035  26.2691771
  51.8053622  88.2831674  14.8015535  52.3304946  88.6218947  14.0764855
  51.7175974  87.3478689  14.6178669  43.4673670  92.1965747  26.9305411
  43.7760797  91.9514894  27.8028111  44.2649152  92.4012386  26.4424282
  43.4894282  94.3503657  19.1610788  43.0499273  93.8580036  19.8543645
  44.2402399  93.8076625  18.9202863  35.9686621  90.5415198  19.1635416
  36.7944641  90.2418970  18.7834060  35.6180673  89.7722820  19.6125205
  40.9368155  89.8941666  21.2333090  40.3148164  89.2312371  20.9335317
  41.6073021  89.9202798  20.5506737  34.1695226  88.4601524  20.1224350
  33.3327135  88.0323699  19.9408351  34.1418872  88.6533968  21.0595141
  41.0092682  78.3723454  30.8265596  41.0580837  79.2485577  30.4443365
  41.5515196  77.8300847  30.2537239  51.4947528  88.9164577  30.1066733
  50.7043071  88.8988716  29.5671232  51.2580882  89.4552871  30.8615769
  51.6145403  85.7657044  27.4199461  51.6643408  85.6007051  28.3614984
  51.5059326  84.8984303  27.0297342  40.4981661  88.4445589  14.7091550
  40.6469782  89.1281054  14.0558223  41.3048105  88.4250680  15.2241006
  48.9049165  81.7487972  28.7358768  49.8059028  81.6094437  28.4442766
  48.9797140  81.9142427  29.6756945  43.2391970  79.1254827  27.5811954
  42.3695280  79.4188393  27.3094543  43.4751451  79.7095272  28.3019218
  53.1163600  88.1853985  27.6641483  52.8248408  88.5483966  28.5004944
  52.5035731  87.4720994  27.4854815  54.3159282  85.7506865  20.1844053
  55.1506173  86.1896669  20.3481613  54.4518411  85.2745518  19.3652299
  51.3650788  83.3086600  26.1321541  51.8404909  83.5014246  25.3240392
  50.4416353  83.3645786  25.8864924  38.2534294  84.4710767  15.7152619
  38.0080336  83.5673097  15.9132829  38.4230209  84.4727918  14.7732097
  45.9431004  75.3434443  25.0977375  46.4612948  76.0795470  24.7723863
  45.5886137  75.6498437  25.9324134  37.5229942  80.2039125  13.2138781
  36.8299187  80.2783480  12.5578817  37.2781694  79.4399468  13.7360297
  46.1943598  71.7634726  20.6178271  46.4745352  71.0957915  21.2438698
  46.9794205  71.9563822  20.1052935  43.9977067  90.9393720  12.1803298
  43.4251034  91.5583907  11.7273769  44.5709861  91.4893082  12.7143220
  50.0652457  80.1852360  24.3649846  51.0169880  80.2850458  24.3862070
  49.8955907  79.3930629  24.8747931  48.0866836  77.2707943  24.5509247
  47.4916768  77.5512956  23.8555736  47.8016533  77.7601844  25.3225988
  47.2174327  91.2230870  13.3111880  48.1505000  91.1576432  13.5144755
  47.1297540  92.0587137  12.8526413  49.8462343  90.5396740  10.2715827
  49.7675975  90.2056604  11.1651585  50.6672010  91.0318508  10.2707300
  52.5440535  83.4058480  23.4792146  52.5116855  82.4674480  23.6651830
  53.1541158  83.4842516  22.7457971  44.3823865  82.2754533   9.5219350
  45.3282970  82.1460741   9.5907768  44.0038110  81.5369195   9.9988778
  52.6935023  80.1969523  23.5250429  52.1774072  79.4127980  23.3380358
  53.5774972  79.8688240  23.6896949  50.3545750  73.9410539  19.4846242
  50.1570571  73.6325627  20.3689574  50.9645456  74.6672178  19.6144172
  58.3617084  84.4674487  22.6198183  59.0920473  84.2059775  23.1805886
  57.7524030  83.7303208  22.6600251  56.4432382  82.6082349  23.2172634
  55.7165545  82.4738314  22.6089126  56.0279668  82.9159178  24.0229352
  44.2662558  86.3272279  30.9820007  45.1865567  86.5050878  31.1760054
  44.2312141  85.3828324  30.8299706  42.5666783  80.2004509   9.4574235
  41.6598238  79.9037622   9.5336949  42.8442764  79.9034327   8.5908522
  33.4844723  81.5210872  19.9073282  33.1647507  80.6676181  19.6147656
  32.9378151  81.7359451  20.6631249  37.2624631  84.2373313  23.6242788
  37.4810640  85.1690421  23.6430822  37.6750404  83.8781288  24.4097592
  44.1828848  74.7441399  15.6118477  43.3729577  74.3988484  15.9873723
  44.8713265  74.4348943  16.2006088  46.1119397  73.8219446  17.2342773
  46.6650435  74.2414899  17.8932796  46.3489483  72.8955194  17.2765729
  42.1352496  79.8106519  33.0145537  42.0349223  80.7600876  32.9457628
  41.9174038  79.4824758  32.1421607  41.3365567  77.0591444   9.5986215
  42.1984731  77.3846343   9.8582032  41.5215911  76.2722940   9.0859280
  33.3532983  85.1413784  21.8766403  32.6596454  84.7267737  21.3636358
  34.1005974  85.1834320  21.2799822  49.4898204  75.9319971  16.7421438
  48.9096873  76.5904775  16.3599490  49.2234136  75.1097315  16.3308855
  47.9401770  75.3325028  18.9442758  48.4401548  75.4441563  18.1357077
  48.5837378  75.0286081  19.5843566  41.9983766  83.2403658  31.8310599
  41.5150848  84.0404018  32.0374488  42.0844705  83.2511603  30.8778043
  35.2669726  85.0732038  19.7532418  35.2440414  85.1719725  18.8014301
  35.5770362  85.9197189  20.0749584  37.9257103  87.1308193  23.8679033
  38.8800357  87.0992135  23.8008964  37.7269627  86.6698817  24.6829259
  38.5156486  85.7009309  26.4349830  39.3349375  86.1953387  26.4584668
  38.7893293  84.7841277  26.4067398  48.2723082  78.0920061  15.7977786
  47.3848937  78.3769712  15.5797981  48.6877071  77.9313824  14.9505063
  51.6237618  78.1166582  19.5132125  52.3998008  78.6063035  19.7856742
  50.8985752  78.5424636  19.9703995  54.0610176  78.8294201  20.5706066
  54.6554667  78.5889937  19.8599374  54.1336760  78.1101332  21.1979602
  36.2807332  92.6727812  20.8849230  36.1461800  91.9128213  20.3187229
  35.8639394  93.3968712  20.4178019  47.4166295  87.8564736   9.8925806
  48.1202145  88.0614738  10.5083461  46.6928944  88.4241498  10.1574889
  48.2464105  83.6074597  16.0128076  48.1899307  84.0643148  15.1735708
  48.7992448  82.8465282  15.8350919  52.0568911  79.3964329  16.8378195
  51.8005846  78.9960965  17.6686403  51.4321779  80.1108123  16.7128335
  56.3681249  82.1360402  19.3449487  55.8080807  82.2053591  20.1181049
  55.7624753  81.9601387  18.6248983  39.4376458  93.5697129  21.0967673
  39.3208842  94.5142562  20.9946363  38.6168904  93.2670691  21.4853472
  49.3252993  88.2947265  11.9424266  50.1598597  87.8628463  11.7601741
  49.1637336  88.1229279  12.8701160  48.9798885  84.7979378  13.3080605
  48.9247689  84.6323650  12.3669049  48.3544940  85.5055411  13.4642795
  33.7691400  80.0347443  27.1342027  34.4150263  79.5246397  27.6229252
  33.5608551  80.7716124  27.7085453  46.2944792  87.1028290  32.6334168
  47.1635952  87.2768942  32.2720803  45.8151543  87.9222707  32.5109897
  42.2895010  74.2987487  12.8865924  42.2773680  75.2429327  13.0434194
  43.1818432  74.1157633  12.5925385  40.4630972  94.2225391  24.3123602
  41.3658219  94.2549001  24.6290096  40.2368342  93.2925842  24.3269937
  42.2184574  92.9756378  20.9733680  41.2680205  92.9758239  20.8598052
  42.5217060  92.2289112  20.4569715  46.1047130  70.8930264  17.1411860
  45.3379526  70.3388751  17.2868543  46.5157835  70.9652133  18.0026012
  38.1088891  77.1815060  31.2317042  38.9720352  76.8251865  31.4420366
  37.5354301  76.8428955  31.9192446  57.9537268  98.8116916  22.0379443
  58.5915678  98.6923663  21.3342783  57.8358111  99.7597760  22.0967395
  54.7626974  98.7644344  21.9740967  54.4245486  98.6485409  21.0861502
  55.6316742  98.3635509  21.9541973  50.6213790 100.6179821  17.9637858
  50.0578655 100.5269758  17.1954146  50.5066185  99.7979725  18.4440351
  55.2446757  99.9179196  27.9327173  55.2335398  99.5231994  27.0607676
  55.4067396  99.1845269  28.5260944  48.1678222 102.1131012  20.8022079
  48.9599514 101.7721837  20.3868378  48.4074872 102.2225987  21.7224232
  56.2013348 104.2850788  13.2752323  55.5501328 104.8704869  12.8886337
  56.9957711 104.8156983  13.3347361  50.1268976 101.3739925  13.6739457
  50.8999852 100.8268913  13.5352333  50.4794374 102.2384175  13.8853919
  51.9654018 102.7016308  26.8806357  51.6743884 103.6061939  26.7653023
  52.6011002 102.7432835  27.5950426  52.8910225 100.0793156  23.4707716
  53.4873797  99.8549179  22.7564679  52.9485197  99.3377902  24.0733164
  52.4635253  97.5332592  11.3057907  52.7160774  97.0114113  10.5441370
  51.5259812  97.3698737  11.4084591  57.5078536  96.5368370  19.1132651
  58.2941625  96.1187793  18.7623068  57.7717241  97.4414462  19.2814299
  57.6788614 101.9741220  13.8121307  57.0434447 102.0475847  14.5242212
  57.3486020 102.5634819  13.1340387  62.9086963  96.4743603  20.0165629
  63.6412135  95.9042820  20.2503459  62.1526319  96.0865204  20.4572135
  52.1831542  99.4360698  13.5082282  52.0667800  98.7605601  14.1763367
  52.2933802  98.9493071  12.6914435  54.5263083  98.8970845  17.2128972
  54.1621290  98.3701466  17.9241893  55.3830199  98.5069314  17.0395457
  60.4312384  90.1865177  24.4760238  60.0995708  91.0560588  24.2521453
  59.8357997  89.8701461  25.1554268  54.1668570  93.9260744  12.2090320
  54.3342972  94.7940981  12.5760791  53.9765739  94.0888026  11.2851609
  56.9243903 102.3877723  23.8756150  56.6244626 103.2902762  23.7671958
  56.5794963 102.1209906  24.7277303  50.3756385  98.8391520  19.9092855
  49.4506881  98.7067734  20.1170547  50.6240798  99.6185739  20.4062797
  60.3241047  94.9060263  21.5553588  59.4157924  94.8375672  21.2612349
  60.2728643  95.3832208  22.3835413  54.1457791  96.3818402  13.1936987
  54.0257416  96.8275453  14.0322467  53.4510379  96.7303720  12.6350525
  47.7365196  98.4824794  20.7436644  47.8657577  98.7359273  21.6576056
  47.0562647  99.0752502  20.4241299  51.9064683 109.1522044  16.8427118
  51.8288713 110.1029869  16.9215599  51.3026327 108.8067916  17.5002044
  54.3981913  96.3249909  29.4988485  53.6215247  96.8843829  29.4891350
  55.0372476  96.8106692  30.0203355  62.1902693  93.1076702  23.3331462
  61.5477074  93.4009235  22.6871256  61.6857622  92.9929622  24.1384658
  59.8442857  96.8539875  14.0217321  60.7560713  97.0867262  13.8465018
  59.3352504  97.4376919  13.4592400  52.6528285  99.1335362  29.0606452
  53.3942969  99.6720406  28.7841276  51.9465271  99.7601651  29.2178004
  58.1283625 101.2764503  27.6578614  58.5366981 100.8346913  26.9133246
  57.4060886 100.7017130  27.9112806  54.4814695  96.2137110  25.0312170
  55.3275890  96.6376523  25.1746819  54.4213332  95.5570734  25.7250734
  58.4512439 101.8365693  21.4130902  57.8221302 102.0011408  20.7106970
  58.0638101 102.2507303  22.1841866  62.3301671 102.7720131  18.7675266
  61.6452709 103.1519033  18.2172299  62.4145521 103.3815458  19.5007214
  57.6314140  93.8741478  26.6893344  57.3875072  94.6283539  26.1527620
  57.9074071  94.2526826  27.5240591  59.5852603 100.4180090  25.3670610
  59.7969498 101.0611850  24.6904991  59.5382351  99.5842407  24.8992540
  57.1878832  93.0297911  22.2707182  56.3263311  93.3279165  22.5623919
  57.2141266  93.2468310  21.3388214  54.0040401 101.5740102  18.6780988
  54.4678747 101.8527805  17.8885610  53.7397199 100.6723546  18.4954078
  50.8964482 101.1211583  21.6160751  51.4665839 101.5498851  20.9778235
  51.4872594 100.8394168  22.3144936  52.9409287  97.6963254  15.4870553
  53.6433331  98.1484298  15.9544479  52.6089916  97.0547073  16.1150446
  51.3889649  96.2875011  29.8621762  50.7588309  96.9691291  30.0957159
  51.2825737  96.1758092  28.9174900  46.6834621  95.9546807  20.7887686
  45.8933675  96.2104335  20.3127797  47.1745869  96.7695144  20.8939727
  60.6998431 103.2952046  23.5392967  61.5215875 102.8932233  23.2575649
  60.6960834 103.1920280  24.4909083  48.6349367  96.3191386  17.7471163
  47.8380530  96.4310080  18.2654659  48.4074959  96.6578038  16.8812053
  54.4655034 102.8436089  25.6953678  54.5299467 103.3056496  26.5311849
  53.7565958 102.2133454  25.8235987  44.9672324  96.2077297  23.2202677
  45.2180363  97.0924307  23.4860253  45.5031873  96.0281899  22.4477769
  68.7904424  99.6390794  19.8877939  68.0368132  99.0698192  19.7321943
  68.9251965  99.6053459  20.8348573  54.1803052 104.5104197  15.5632658
  54.0448727 105.3555732  15.9917506  54.7212864 104.7123474  14.7998592
  50.6670392  90.5895776  32.2247013  50.2737337  90.0361975  32.8994657
  51.4836532  90.9006355  32.6153531  47.6332449 102.0279635  16.1360583
  48.1456970 102.8222885  16.2866148  48.2855162 101.3305925  16.0694184
  49.4427334 105.1445391  18.2183336  49.6193962 106.0663356  18.0304320
  50.2384168 104.8303810  18.6477716  53.5838353  92.0053655  29.8167270
  54.3248066  92.6060809  29.7371732  53.8156275  91.2631293  29.2585312
  48.7279691  97.1910023  28.0945499  48.6133206  96.2895280  28.3952598
  47.8724208  97.4373720  27.7430316  55.8071528 105.1327763  29.6933000
  55.3635382 104.3464142  29.3753904  56.4688742 105.3206914  29.0276891
  50.5658649 106.6623565  24.2193678  51.1166075 106.5340628  23.4470672
  49.7270125 106.9618454  23.8688571  57.9052766 105.4130563  27.7214401
  57.8871242 106.2339444  27.2294670  58.8272686 105.2884638  27.9464542
  54.3625821 102.9274692  28.5637910  54.8954157 102.1662981  28.3337218
  53.8339902 102.6348344  29.3062064  57.5295515  88.0334758  24.0931551
  57.1859785  88.9236400  24.0170662  57.8974478  87.8436416  23.2301136
  45.5981366 100.3568289  16.9120153  46.4356588 100.7665297  16.6953861
  45.7759634  99.4167731  16.8820347  57.4945798  98.0243370  12.6003986
  56.9792422  98.7947974  12.8392374  57.2223107  97.3508506  13.2237048
  55.0792909  92.8693070  17.6589225  54.2234506  92.4799921  17.4794864
  55.4919861  92.9485031  16.7989010  56.6092056  90.4039414  22.0580785
  56.1056851  90.3669549  21.2448590  56.9022663  91.3132156  22.1177441
  52.8534942  90.4878143  21.0646966  53.7187939  90.2920952  20.7052856
  52.9212451  90.2588495  21.9916323  62.4680072 100.7775724  14.5357160
  61.6909515 100.4386884  14.0912322  63.1471553 100.7828347  13.8612125
  57.2832101  95.8970462  14.4263768  56.9782237  96.2116611  15.2773911
  58.2362544  95.9751882  14.4691101  55.7278533 102.0560685  16.0756722
  55.1999895 101.3213445  15.7629959  55.2266036 102.8335361  15.8296690
  60.7071379 100.2509705  21.1923768  60.0495054 100.9408967  21.2803897
  61.5111778 100.6406137  21.5357754  50.4597261  92.7180351  18.4363333
  51.0341013  92.4955533  17.7036526  51.0468243  92.7869046  19.1891934
  59.5176838  98.6054078  19.2427710  60.0308720  99.2384070  19.7449419
  60.1678062  98.0055274  18.8771070  50.7866848  94.7484812  12.4559218
  49.9504160  95.0859499  12.7768493  50.6471618  94.6133792  11.5186355
  52.7619929  89.5921600  17.1638403  52.1084341  89.2770617  16.5395017
  52.7200403  88.9697341  17.8898225  53.8731133  99.8740895   9.0791695
  52.9658195  99.6430149   9.2782844  54.3702165  99.0778514   9.2665676
  55.9957669  96.0803534  21.4886050  55.0780230  96.3018481  21.3307738
  56.4117813  96.1549844  20.6297758  56.7792717  97.4794949  16.6188730
  57.5264536  97.9916347  16.3095852  57.0484306  97.1579002  17.4793124
  55.0519367  99.9753490  13.6015685  54.1430586  99.6912523  13.6988154
  55.0814451 100.3952569  12.7418992  60.2838634 103.5860080  17.3706852
  59.8300961 102.7450989  17.4272043  59.6532601 104.2221478  17.7081632
  59.2271554  94.5152066  18.6007520  58.4894311  94.0029452  18.9317762
  59.4798327  94.0752447  17.7890797  58.7271574 105.4236576  18.3056670
  59.0194548 105.9841633  17.5869036  59.2370194 105.7165137  19.0609830
  59.3283181  87.2928318  19.1949289  59.6342058  86.4325681  18.9075204
  60.0535786  87.8845938  18.9948283  45.6207537  97.6959004  17.5830887
  45.4231937  97.1028365  16.8581954  45.0654201  97.3911214  18.3006826
  53.6004261  97.5882111  19.7025480  53.6552871  96.6355947  19.6267957
  52.7895463  97.7441550  20.1866778  54.7495455 101.5162234  10.9403763
  54.3114885 100.7998093  10.4809401  55.4905896 101.7438349  10.3788855
  51.5396621  96.2059170  17.4615859  50.7264486  96.5053341  17.8681051
  52.0355615  95.8114859  18.1790341  53.6905199 106.2016927  19.3950124
  53.6481377 106.4277774  18.4658656  54.6067898 105.9680302  19.5435925
  57.1370832  96.6700995  26.2930753  57.4920220  96.8972468  27.1525219
  57.7842964  97.0019372  25.6708008  62.8668569  99.7919431  16.9980082
  62.7286468  99.9821027  16.0701271  62.5104788 100.5538814  17.4548133
  51.0310696  93.7777526  23.0777094  51.6710075  93.6366285  22.3800057
  50.1988226  93.4912039  22.7015696  62.8937949 101.8595958  22.0091353
  63.3274456 101.7671247  22.8574407  63.6069530 101.8353458  21.3711369
  51.8070999 103.0779956  19.1912086  52.6011598 102.5830277  18.9894661
  51.0962692 102.5497820  18.8279792  56.6265844 105.4598052  23.5424454
  56.6802866 106.0288988  24.3102170  55.7580625 105.6299937  23.1778491
  48.1153763  97.2223038  15.2671839  47.1851351  97.1607494  15.4841801
  48.2111235  96.6998991  14.4708480  48.0339312  93.7477851  17.8550081
  48.2946129  94.6623184  17.7459241  48.8556484  93.2802294  18.0046694
  49.5064237  95.1615608  25.0248905  50.1787291  94.9532970  24.3761554
  48.6794024  94.9637694  24.5854138  63.7553499 101.9019658  24.5424239
  63.9489389 102.8065469  24.7883514  63.6554117 101.4427078  25.3762824
  55.4089809  91.7877549  27.0414566  54.7617724  92.4867499  26.9479043
  56.1790825  92.2213693  27.4090814  58.8168607 102.0526401  30.1165119
  58.6654114 101.8236953  29.1995203  58.8073287 103.0097003  30.1296464
  55.5853944  99.6258314  25.1011386  56.5146004  99.7769474  24.9280353
  55.1644974  99.7142335  24.2460032  54.3842275 103.6508978  22.8709923
  54.2453361 103.2827763  23.7435862  53.5956872 104.1656618  22.6993881
  54.9790427 108.7518075  14.2135460  55.1542183 108.2806118  15.0281083
  54.2923215 109.3783841  14.4416721  55.9347491 103.0290581  20.2598761
  55.5997323 102.9891351  21.1556411  55.4351436 102.3635297  19.7869171
  49.9091735  98.4358211  25.7851342  49.7711533  97.7038450  26.3862881
  50.8196658  98.3467111  25.5035530  58.8706682 100.3746615  10.5335821
  58.2535853  99.6493444  10.4368874  58.4023171 101.1355976  10.1902895
  52.5374035  98.1478170  25.2735022  53.2473654  97.5071363  25.2321640
  52.4943343  98.3991065  26.1961203  60.5260814 105.0845524  28.1941601
  60.4673360 104.4004744  27.5272184  60.9280332 105.8264514  27.7422227
  51.2502969  95.1343388  27.0930662  50.7140326  94.6834127  27.7452258
  50.6619678  95.2689297  26.3501126  49.5451513 111.9007438  20.9875320
  49.7848111 112.5325962  21.6654339  48.7020709 111.5495478  21.2740679
  50.6605228  94.5932040   9.6557125  49.7834694  94.4720840   9.2919372
  51.1362981  93.8018118   9.4036014  60.5278221 103.0485108  26.4255581
  59.6405000 102.7111029  26.5481980  61.0976772 102.3168139  26.6624346
  42.1807368  99.3809199  19.7498632  42.8678408  99.0670929  19.1619648
  42.0255497 100.2850564  19.4765884  46.9842090  94.2699396  24.1783656
  46.9000279  93.6625066  23.4434066  46.1624797  94.7608414  24.1793152
  54.0579375 107.7086560  23.3916824  53.9849546 108.5141532  23.9036129
  53.6156768 107.9078526  22.5664846  53.8469154 106.9458330  16.9019646
  53.0636676 107.4880010  16.9957870  54.5461899 107.4632310  17.3013887
  57.1565804  92.7552960  19.5453851  57.6534504  92.0022922  19.2254921
  56.3852786  92.7917276  18.9797060  65.0095562  98.4593325  21.1872143
  64.9985438  99.3418040  20.8166076  64.1412941  98.1064876  20.9926680
  56.5178058 107.6073394  25.5474983  57.2306030 108.2420859  25.4750884
  56.0268087 107.7037260  24.7314985  58.2395585 101.5124647  17.1192274
  57.3051864 101.6326109  16.9496979  58.4172253 100.6097114  16.8552284
  53.7400773  94.8970343  19.2725536  53.3698561  94.3441383  19.9606441
  54.2359866  94.2928476  18.7200536  61.6268136  97.3541966  17.6542309
  62.0928589  98.1869958  17.5802611  62.0775637  96.8886948  18.3587567
  51.5689972 105.3567838  26.3680554  52.2699431 105.9904321  26.5209948
  51.0985087 105.6982569  25.6076193  59.6944367 103.6985787  14.6528461
  59.9704211 103.5842382  15.5622335  58.8248866 103.3003272  14.6140634
  59.5984799  89.7222553  21.6933210  58.6847879  89.9526780  21.8615417
  60.0277901  89.8060997  22.5447242  59.3691258  97.9112445  24.1933104
  58.7162708  98.1588352  23.5385557  59.7471638  97.0976583  23.8595581
  56.3298431 107.9472138  18.2961274  56.5120826 107.1293794  18.7589027
  57.1531417 108.1639830  17.8586164  56.6640597 106.8740323  15.5576323
  57.1928363 106.3632778  14.9446485  56.9268817 106.5582854  16.4221856
  55.4178831  98.6532256  30.6799141  54.7419468  98.5526385  31.3501516
  56.2406465  98.4971470  31.1435138  47.1657690 104.8904193  23.3011656
  47.7511127 104.1447880  23.4339561  46.9682528 105.2008149  24.1848320
  50.0196345 107.9255440  18.3174099  49.3506720 108.4101568  17.8338139
  49.8809215 108.1724660  19.2317477  41.7575344  97.4609793  22.0216099
  41.7959444  96.9273383  22.8153218  41.2515637  96.9344998  21.4027077
  54.1601614 109.9599183  24.9156757  54.7119922 110.1230805  25.6805842
  54.5007807 110.5503621  24.2436782  49.1366107  92.3074333  25.5178642
  49.2007433  93.1689164  25.1056039  49.0733227  91.6948335  24.7851000
  48.6118379  94.3797466  29.1651676  49.2390418  93.9974543  29.7789200
  47.7546298  94.1611668  29.5307369  59.0112488 104.7860441  30.7705411
  59.5552392 105.3990399  30.2760366  58.4299333 105.3440019  31.2872424
  45.3883922  96.1873895  15.0970031  45.6837363  95.2784573  15.0437085
  44.4871958  96.1661634  14.7751033  57.2970001 107.9081159  21.9020439
  57.1721140 107.1070899  21.3931385  57.9549092 108.4027352  21.4134409
  48.9178169  94.2629892  21.0797579  48.1964755  94.8765859  20.9405053
  49.7071425  94.7987656  21.0014225  59.3604909 105.7090179  23.5299989
  58.4135245 105.5895530  23.4578316  59.7087682 104.8212677  23.6126251
  51.7204483  91.5984318  27.3538231  52.2438884  91.8446615  28.1164540
  51.5016816  92.4304353  26.9341369  47.1171764  93.8687993  15.2209356
  46.7884470  92.9885372  15.0384462  47.4711134  93.8135661  16.1085745
  56.3651342 105.5042895  19.7304342  56.2176305 104.5759603  19.9111912
  57.1904836 105.5262986  19.2461417  50.2313587  94.1560962  15.5884834
  50.5709659  94.6846884  14.8663442  50.6785707  94.4941369  16.3643400
  59.9685464 106.3271454  20.8169214  60.8932012 106.1214315  20.6793665
  59.8000768 106.0787855  21.7258556  52.9257028  92.5398013  25.0387902
  52.5853848  91.7405826  25.4408582  52.2196034  92.8399724  24.4664735
  53.5773499  89.6247326  23.4915225  54.3999569  89.1507804  23.3694115
  53.8211563  90.4037809  23.9913911  52.2181734  92.6535584  13.7878126
  52.9390096  93.0316837  13.2841843  51.5947038  93.3724461  13.8913104
  56.3612857  93.3580733  14.7236459  56.5776471  94.2405371  14.4225287
  55.8806924  92.9666946  13.9942101  51.1012078  96.3166446  21.3007203
  50.9556659  96.6306749  22.1931485  50.6237282  96.9351347  20.7478102
  52.9608461  93.3068994  21.3488093  52.9470030  92.4110087  21.0120391
  53.6780889  93.3139658  21.9826379  54.8134592  93.7406334  23.3941220
  54.5552370  94.6623405  23.3925551  54.2819632  93.3436769  24.0841684
  59.7580781 106.8457121  16.1731306  59.9317658 106.2803544  15.4205158
  60.2509672 107.6458016  15.9910796  45.5757740  98.8571791  24.2394865
  45.0311208  99.6331599  24.3715139  46.4537090  99.2042595  24.0813986
  52.3645357  92.1883374  16.6175663  52.4861268  91.2600021  16.8166551
  52.0747399  92.2022060  15.7053978  55.2336547  89.8738285  19.7542383
  55.2558244  89.9377618  18.7994362  55.6504606  89.0342794  19.9482889
  65.6120172  99.6093544  17.7921605  66.0551318  98.8600870  17.3940729
  64.7346682  99.6003681  17.4095337  46.3623762  97.9841687  27.1325021
  45.6205498  98.1324322  27.7189652  46.0416506  98.2449952  26.2691771
  62.6447376 103.6123591  14.8015535  63.1698700 103.9510864  14.0764855
  62.5569729 102.6770607  14.6178669  54.3067425 107.5257665  26.9305411
  54.6154551 107.2806812  27.8028111  55.1042907 107.7304304  26.4424282
  54.3288037 109.6795575  19.1610788  53.8893027 109.1871953  19.8543645
  55.0796154 109.1368542  18.9202863  46.8080376 105.8707116  19.1635416
  47.6338396 105.5710887  18.7834060  46.4574428 105.1014738  19.6125205
  51.7761909 105.2233584  21.2333090  51.1541918 104.5604289  20.9335317
  52.4466776 105.2494716  20.5506737  45.0088981 103.7893442  20.1224350
  44.1720889 103.3615616  19.9408351  44.9812626 103.9825885  21.0595141
  51.8486437  93.7015372  30.8265596  51.8974592  94.5777495  30.4443365
  52.3908951  93.1592765  30.2537239  62.3341282 104.2456495  30.1066733
  61.5436826 104.2280634  29.5671232  62.0974637 104.7844789  30.8615769
  62.4539157 101.0948961  27.4199461  62.5037162 100.9298969  28.3614984
  62.3453081 100.2276220  27.0297342  51.3375416 103.7737507  14.7091550
  51.4863536 104.4572972  14.0558223  52.1441859 103.7542597  15.2241006
  59.7442920  97.0779889  28.7358768  60.6452782  96.9386354  28.4442766
  59.8190894  97.2434344  29.6756945  54.0785725  94.4546744  27.5811954
  53.2089034  94.7480310  27.3094543  54.3145205  95.0387189  28.3019218
  63.9557354 103.5145903  27.6641483  63.6642162 103.8775884  28.5004944
  63.3429485 102.8012911  27.4854815  65.1553036 101.0798783  20.1844053
  65.9899928 101.5188587  20.3481613  65.2912165 100.6037436  19.3652299
  62.2044542  98.6378518  26.1321541  62.6798664  98.8306164  25.3240392
  61.2810108  98.6937703  25.8864924  49.0928049  99.8002685  15.7152619
  48.8474091  98.8965015  15.9132829  49.2623963  99.8019835  14.7732097
  56.7824759  90.6726361  25.0977375  57.3006703  91.4087388  24.7723863
  56.4279892  90.9790354  25.9324134  48.3623696  95.5331042  13.2138781
  47.6692941  95.6075397  12.5578817  48.1175448  94.7691386  13.7360297
  57.0337353  87.0926644  20.6178271  57.3139107  86.4249833  21.2438698
  57.8187960  87.2855739  20.1052935  54.8370821 106.2685638  12.1803298
  54.2644789 106.8875825  11.7273769  55.4103615 106.8184999  12.7143220
  60.9046211  95.5144278  24.3649846  61.8563634  95.6142375  24.3862070
  60.7349662  94.7222546  24.8747931  58.9260591  92.5999861  24.5509247
  58.3310523  92.8804874  23.8555736  58.6410287  93.0893762  25.3225988
  63.3834289  98.7350397  23.4792146  63.3510609  97.7966398  23.6651830
  63.9934913  98.8134434  22.7457971  55.2217620  97.6046450   9.5219350
  56.1676725  97.4752658   9.5907768  54.8431865  96.8661112   9.9988778
  63.5328778  95.5261441  23.5250429  63.0167826  94.7419897  23.3380358
  64.4168726  95.1980157  23.6896949  61.1939504  89.2702456  19.4846242
  60.9964326  88.9617545  20.3689574  61.8039210  89.9964095  19.6144172
  69.2010839  99.7966404  22.6198183  69.9314227  99.5351692  23.1805886
  68.5917784  99.0595126  22.6600251  67.2826136  97.9374267  23.2172634
  66.5559300  97.8030232  22.6089126  66.8673423  98.2451095  24.0229352
  55.1056312 101.6564196  30.9820007  56.0259322 101.8342795  31.1760054
  55.0705896 100.7120242  30.8299706  53.4060537  95.5296427   9.4574235
  52.4991993  95.2329539   9.5336949  53.6836518  95.2326245   8.5908522
  44.3238477  96.8502790  19.9073282  44.0041262  95.9968098  19.6147656
  43.7771906  97.0651368  20.6631249  48.1018385  99.5665231  23.6242788
  48.3204395 100.4982339  23.6430822  48.5144159  99.2073206  24.4097592
  55.0222603  90.0733316  15.6118477  54.2123331  89.7280401  15.9873723
  55.7107020  89.7640860  16.2006088  56.9513151  89.1511363  17.2342773
  57.5044190  89.5706817  17.8932796  57.1883237  88.2247111  17.2765729
  52.9746250  95.1398437  33.0145537  52.8742977  96.0892794  32.9457628
  52.7567792  94.8116676  32.1421607  52.1759322  92.3883362   9.5986215
  53.0378486  92.7138260   9.8582032  52.3609666  91.6014858   9.0859280
  44.1926737 100.4705702  21.8766403  43.4990209 100.0559654  21.3636358
  44.9399728 100.5126238  21.2799822  60.3291958  91.2611888  16.7421438
  59.7490627  91.9196692  16.3599490  60.0627891  90.4389233  16.3308855
  58.7795525  90.6616946  18.9442758  59.2795303  90.7733481  18.1357077
  59.4231133  90.3577999  19.5843566  52.8377520  98.5695576  31.8310599
  52.3544602  99.3695936  32.0374488  52.9238459  98.5803521  30.8778043
  46.1063480 100.4023955  19.7532418  46.0834168 100.5011643  18.8014301
  46.4164117 101.2489106  20.0749584  48.7650858 102.4600110  23.8679033
  49.7194111 102.4284053  23.8008964  48.5663381 101.9990734  24.6829259
  49.3550240 101.0301226  26.4349830  50.1743129 101.5245305  26.4584668
  49.6287048 100.1133195  26.4067398  59.1116836  93.4211979  15.7977786
  58.2242691  93.7061629  15.5797981  59.5270825  93.2605742  14.9505063
  62.4631372  93.4458500  19.5132125  63.2391762  93.9354952  19.7856742
  61.7379507  93.8716554  19.9703995  64.9003931  94.1586119  20.5706066
  65.4948422  93.9181855  19.8599374  64.9730515  93.4393250  21.1979602
  47.1201087 108.0019730  20.8849230  46.9855555 107.2420131  20.3187229
  46.7033149 108.7260630  20.4178019  59.0857860  98.9366515  16.0128076
  59.0293061  99.3935066  15.1735708  59.6386202  98.1757199  15.8350919
  62.8962666  94.7256247  16.8378195  62.6399600  94.3252882  17.6686403
  62.2715534  95.4400041  16.7128335  67.2075004  97.4652320  19.3449487
  66.6474562  97.5345509  20.1181049  66.6018507  97.2893304  18.6248983
  50.2770213 108.8989047  21.0967673  50.1602597 109.8434479  20.9946363
  49.4562659 108.5962609  21.4853472  60.1646747 103.6239183  11.9424266
  60.9992351 103.1920381  11.7601741  60.0031090 103.4521196  12.8701160
  59.8192639 100.1271296  13.3080605  59.7641443  99.9615567  12.3669049
  59.1938695 100.8347329  13.4642795  44.6085154  95.3639360  27.1342027
  45.2544018  94.8538314  27.6229252  44.4002305  96.1008042  27.7085453
  57.1338546 102.4320208  32.6334168  58.0029706 102.6060860  32.2720803
  56.6545298 103.2514625  32.5109897  53.1288765  89.6279405  12.8865924
  53.1167435  90.5721245  13.0434194  54.0212187  89.4449550  12.5925385
  51.3024727 109.5517309  24.3123602  52.2051973 109.5840919  24.6290096
  51.0762097 108.6217760  24.3269937  53.0578329 108.3048295  20.9733680
  52.1073960 108.3050157  20.8598052  53.3610815 107.5581030  20.4569715
  56.9440884  86.2222182  17.1411860  56.1773280  85.6680668  17.2868543
  57.3551589  86.2944050  18.0026012  48.9482645  92.5106977  31.2317042
  49.8114107  92.1543782  31.4420366  48.3748056  92.1720872  31.9192446
  65.6020728 114.0936262  21.9740967  65.2639240 113.9777327  21.0861502
  66.4710497 113.6927427  21.9541973  66.0840511 115.2471114  27.9327173
  66.0729152 114.8523912  27.0607676  66.2461151 114.5137186  28.5260944
  59.0071976 117.4422930  20.8022079  59.7993268 117.1013755  20.3868378
  59.2468626 117.5517905  21.7224232  62.8047773 118.0308225  26.8806357
  62.5137639 118.9353856  26.7653023  63.4404757 118.0724753  27.5950426
  63.7303979 115.4085074  23.4707716  64.3267552 115.1841096  22.7564679
  63.7878951 114.6669819  24.0733164  71.2706138 105.5157095  24.4760238
  70.9389463 106.3852506  24.2521453  70.6751752 105.1993379  25.1554268
  67.7637658 117.7169641  23.8756150  67.4638381 118.6194680  23.7671958
  67.4188717 117.4501824  24.7277303  61.2150139 114.1683438  19.9092855
  60.2900636 114.0359652  20.1170547  61.4634552 114.9477657  20.4062797
  71.1634801 110.2352181  21.5553588  70.2551679 110.1667590  21.2612349
  71.1122397 110.7124126  22.3835413  58.5758950 113.8116711  20.7436644
  58.7051331 114.0651190  21.6576056  57.8956402 114.4044419  20.4241299
  65.2375667 111.6541827  29.4988485  64.4609001 112.2135747  29.4891350
  65.8766230 112.1398610  30.0203355  73.0296448 108.4368620  23.3331462
  72.3870828 108.7301153  22.6871256  72.5251376 108.3221540  24.1384658
  63.4922040 114.4627280  29.0606452  64.2336724 115.0012324  28.7841276
  62.7859025 115.0893569  29.2178004  68.9677379 116.6056421  27.6578614
  69.3760735 116.1638831  26.9133246  68.2454641 116.0309048  27.9112806
  65.3208449 111.5429027  25.0312170  66.1669644 111.9668441  25.1746819
  65.2607087 110.8862652  25.7250734  68.4707895 109.2033396  26.6893344
  68.2268826 109.9575456  26.1527620  68.7467825 109.5818743  27.5240591
  70.4246357 115.7472008  25.3670610  70.6363253 116.3903768  24.6904991
  70.3776106 114.9134325  24.8992540  68.0272586 108.3589829  22.2707182
  67.1657065 108.6571082  22.5623919  68.0535021 108.5760228  21.3388214
  61.7358237 116.4503501  21.6160751  62.3059594 116.8790769  20.9778235
  62.3266349 116.1686085  22.3144936  62.2283403 111.6166928  29.8621762
  61.5982064 112.2983209  30.0957159  62.1219491 111.5050010  28.9174900
  57.5228376 111.2838724  20.7887686  56.7327430 111.5396253  20.3127797
  58.0139623 112.0987062  20.8939727  59.4743121 111.6483304  17.7471163
  58.6774284 111.7601998  18.2654659  59.2468713 111.9869956  16.8812053
  65.3048789 118.1728007  25.6953678  65.3693221 118.6348414  26.5311849
  64.5959713 117.5425372  25.8235987  55.8066079 111.5369215  23.2202677
  56.0574117 112.4216225  23.4860253  56.3425627 111.3573816  22.4477769
  61.5064146 105.9187694  32.2247013  61.1131092 105.3653893  32.8994657
  62.3230286 106.2298273  32.6153531  64.4232107 107.3345573  29.8167270
  65.1641820 107.9352726  29.7371732  64.6550030 106.5923211  29.2585312
  59.5673445 112.5201940  28.0945499  59.4526960 111.6187198  28.3952598
  58.7117963 112.7665637  27.7430316  66.6465283 120.4619681  29.6933000
  66.2029137 119.6756059  29.3753904  67.3082496 120.6498831  29.0276891
  61.4052404 121.9915482  24.2193678  61.9559829 121.8632546  23.4470672
  60.5663880 122.2910371  23.8688571  68.7446521 120.7422481  27.7214401
  68.7264996 121.5631362  27.2294670  69.6666441 120.6176556  27.9464542
  65.2019575 118.2566610  28.5637910  65.7347912 117.4954898  28.3337218
  64.6733656 117.9640262  29.3062064  68.3689270 103.3626676  24.0931551
  68.0253539 104.2528318  24.0170662  68.7368233 103.1728334  23.2301136
  67.4485810 105.7331331  22.0580785  66.9450606 105.6961466  21.2448590
  67.7416417 106.6424074  22.1177441  63.6928696 105.8170061  21.0646966
  64.5581693 105.6212870  20.7052856  63.7606205 105.5880413  21.9916323
  61.2991015 108.0472269  18.4363333  61.8734767 107.8247450  17.7036526
  61.8861998 108.1160963  19.1891934  63.6013683 104.9213518  17.1638403
  62.9478095 104.6062535  16.5395017  63.5594157 104.2989258  17.8898225
  66.8351423 111.4095451  21.4886050  65.9173985 111.6310398  21.3307738
  67.2511567 111.4841762  20.6297758  70.1676936 102.6220235  19.1949289
  70.4735812 101.7617599  18.9075204  70.8929540 103.2137855  18.9948283
  56.4601292 113.0250922  17.5830887  56.2625692 112.4320283  16.8581954
  55.9047956 112.7203132  18.3006826  64.4398015 112.9174028  19.7025480
  64.4946625 111.9647865  19.6267957  63.6289217 113.0733467  20.1866778
  62.3790375 111.5351088  17.4615859  61.5658241 111.8345259  17.8681051
  62.8749369 111.1406777  18.1790341  67.9764587 111.9992913  26.2930753
  68.3313975 112.2264386  27.1525219  68.6236718 112.3311289  25.6708008
  61.8704450 109.1069444  23.0777094  62.5103829 108.9658203  22.3800057
  61.0381981 108.8203957  22.7015696  58.8733066 109.0769769  17.8550081
  59.1339884 109.9915102  17.7459241  59.6950239 108.6094211  18.0046694
  60.3457992 110.4907526  25.0248905  61.0181045 110.2824888  24.3761554
  59.5187778 110.2929612  24.5854138  66.2483564 107.1169467  27.0414566
  65.6011479 107.8159416  26.9479043  67.0184579 107.5505611  27.4090814
  69.6562362 117.3818319  30.1165119  69.5047868 117.1528871  29.1995203
  69.6467041 118.3388920  30.1296464  66.4247698 114.9550232  25.1011386
  67.3539758 115.1061391  24.9280353  66.0038728 115.0434252  24.2460032
  65.2236030 118.9800896  22.8709923  65.0847116 118.6119680  23.7435862
  64.4350626 119.4948535  22.6993881  60.7485489 113.7650129  25.7851342
  60.6105287 113.0330368  26.3862881  61.6590413 113.6759029  25.5035530
  63.3767790 113.4770088  25.2735022  64.0867408 112.8363280  25.2321640
  63.3337098 113.7282983  26.1961203  71.3654568 120.4137441  28.1941601
  71.3067115 119.7296662  27.5272184  71.7674087 121.1556431  27.7422227
  62.0896724 110.4635306  27.0930662  61.5534081 110.0126044  27.7452258
  61.5013432 110.5981215  26.3501126  71.3671976 118.3777025  26.4255581
  70.4798754 118.0402947  26.5481980  71.9370527 117.6460057  26.6624346
  53.0201123 114.7101117  19.7498632  53.7072163 114.3962847  19.1619648
  52.8649251 115.6142482  19.4765884  57.8235845 109.5991314  24.1783656
  57.7394034 108.9916983  23.4434066  57.0018551 110.0900332  24.1793152
  67.9959559 108.0844877  19.5453851  68.4928258 107.3314840  19.2254921
  67.2246540 108.1209194  18.9797060  64.5794528 110.2262260  19.2725536
  64.2092315 109.6733301  19.9606441  65.0753620 109.6220394  18.7200536
  62.4083726 120.6859755  26.3680554  63.1093186 121.3196238  26.5209948
  61.9378841 121.0274487  25.6076193  70.4378554 105.0514471  21.6933210
  69.5241633 105.2818698  21.8615417  70.8671655 105.1352915  22.5447242
  70.2085012 113.2404363  24.1933104  69.5556462 113.4880270  23.5385557
  70.5865392 112.4268501  23.8595581  66.2572585 113.9824174  30.6799141
  65.5813222 113.8818303  31.3501516  67.0800219 113.8263387  31.1435138
  58.0051444 120.2196110  23.3011656  58.5904881 119.4739798  23.4339561
  57.8076283 120.5300067  24.1848320  52.5969099 112.7901710  22.0216099
  52.6353198 112.2565301  22.8153218  52.0909392 112.2636916  21.4027077
  59.9759861 107.6366251  25.5178642  60.0401188 108.4981082  25.1056039
  59.9126981 107.0240253  24.7851000  59.4512134 109.7089384  29.1651676
  60.0784173 109.3266461  29.7789200  58.5940053 109.4903585  29.5307369
  69.8506242 120.1152359  30.7705411  70.3946146 120.7282317  30.2760366
  69.2693087 120.6731937  31.2872424  56.2277677 111.5165813  15.0970031
  56.5231118 110.6076491  15.0437085  55.3265712 111.4953552  14.7751033
  59.7571924 109.5921809  21.0797579  59.0358509 110.2057777  20.9405053
  60.5465179 110.1279574  21.0014225  62.5598237 106.9276236  27.3538231
  63.0832639 107.1738532  28.1164540  62.3410570 107.7596271  26.9341369
  57.9565518 109.1979910  15.2209356  57.6278224 108.3177289  15.0384462
  58.3104889 109.1427579  16.1085745  63.7650782 107.8689931  25.0387902
  63.4247602 107.0697744  25.4408582  63.0589788 108.1691642  24.4664735
  64.4167254 104.9539243  23.4915225  65.2393323 104.4799721  23.3694115
  64.6605317 105.7329727  23.9913911  61.9405833 111.6458364  21.3007203
  61.7950413 111.9598667  22.1931485  61.4631036 112.2643264  20.7478102
  63.8002216 108.6360912  21.3488093  63.7863784 107.7402005  21.0120391
  64.5174644 108.6431576  21.9826379  65.6528346 109.0698252  23.3941220
  65.3946124 109.9915323  23.3925551  65.1213387 108.6728687  24.0841684
  56.4151495 114.1863708  24.2394865  55.8704963 114.9623516  24.3715139
  57.2930845 114.5334513  24.0813986  63.2039111 107.5175292  16.6175663
  63.3255023 106.5891938  16.8166551  62.9141154 107.5313978  15.7053978
  66.0730302 105.2030203  19.7542383  66.0951999 105.2669536  18.7994362
  66.4898361 104.3634711  19.9482889  57.2017517 113.3133605  27.1325021
  56.4599253 113.4616240  27.7189652  56.8810261 113.5741870  26.2691771
  65.1461179 122.8549583  26.9305411  65.4548306 122.6098730  27.8028111
  65.9436661 123.0596221  26.4424282  55.8482735 119.1185360  20.1224350
  55.0114644 118.6907534  19.9408351  55.8206381 119.3117803  21.0595141
  62.6880191 109.0307290  30.8265596  62.7368346 109.9069412  30.4443365
  63.2302705 108.4884683  30.2537239  73.1735037 119.5748413  30.1066733
  72.3830580 119.5572552  29.5671232  72.9368391 120.1136706  30.8615769
  73.2932912 116.4240879  27.4199461  73.3430917 116.2590887  28.3614984
  73.1846835 115.5568138  27.0297342  70.5836674 112.4071807  28.7358768
  71.4846537 112.2678272  28.4442766  70.6584649 112.5726262  29.6756945
  64.9179479 109.7838662  27.5811954  64.0482789 110.0772228  27.3094543
  65.1538960 110.3679107  28.3019218  74.7951109 118.8437821  27.6641483
  74.5035917 119.2067801  28.5004944  74.1823240 118.1304829  27.4854815
  73.0438297 113.9670435  26.1321541  73.5192418 114.1598082  25.3240392
  72.1203862 114.0229621  25.8864924  67.6218513 106.0018279  25.0977375
  68.1400457 106.7379306  24.7723863  67.2673646 106.3082272  25.9324134
  67.8731107 102.4218561  20.6178271  68.1532861 101.7541750  21.2438698
  68.6581714 102.6147657  20.1052935  71.7439966 110.8436195  24.3649846
  72.6957389 110.9434293  24.3862070  71.5743416 110.0514464  24.8747931
  69.7654345 107.9291779  24.5509247  69.1704277 108.2096791  23.8555736
  69.4804042 108.4185680  25.3225988  74.3722532 110.8553358  23.5250429
  73.8561581 110.0711815  23.3380358  75.2562481 110.5272075  23.6896949
  72.0333259 104.5994374  19.4846242  71.8358080 104.2909462  20.3689574
  72.6432965 105.3256013  19.6144172  65.9450067 116.9856114  30.9820007
  66.8653076 117.1634713  31.1760054  65.9099650 116.0412160  30.8299706
  55.1632232 112.1794708  19.9073282  54.8435016 111.3260016  19.6147656
  54.6165660 112.3943286  20.6631249  58.9412140 114.8957149  23.6242788
  59.1598149 115.8274257  23.6430822  59.3537913 114.5365123  24.4097592
  65.8616357 105.4025234  15.6118477  65.0517086 105.0572319  15.9873723
  66.5500774 105.0932778  16.2006088  67.7906906 104.4803281  17.2342773
  68.3437944 104.8998734  17.8932796  68.0276992 103.5539029  17.2765729
  63.8140005 110.4690355  33.0145537  63.7136732 111.4184712  32.9457628
  63.5961547 110.1408593  32.1421607  55.0320492 115.7997619  21.8766403
  54.3383963 115.3851572  21.3636358  55.7793483 115.8418156  21.2799822
  69.6189279 105.9908864  18.9442758  70.1189057 106.1025398  18.1357077
  70.2624887 105.6869917  19.5843566  63.6771275 113.8987493  31.8310599
  63.1938357 114.6987854  32.0374488  63.7632214 113.9095438  30.8778043
  56.9457235 115.7315873  19.7532418  56.9227923 115.8303560  18.8014301
  57.2557871 116.5781024  20.0749584  59.6044612 117.7892028  23.8679033
  60.5587866 117.7575970  23.8008964  59.4057136 117.3282652  24.6829259
  60.1943995 116.3593144  26.4349830  61.0136884 116.8537223  26.4584668
  60.4680802 115.4425112  26.4067398  55.4478909 110.6931278  27.1342027
  56.0937772 110.1830232  27.6229252  55.2396060 111.4299960  27.7085453
  67.9732301 117.7612126  32.6334168  68.8423461 117.9352778  32.2720803
  67.4939052 118.5806542  32.5109897  67.7834639 101.5514099  17.1411860
  67.0167035 100.9972586  17.2868543  68.1945344 101.6235968  18.0026012
  59.7876400 107.8398895  31.2317042  60.6507861 107.4835700  31.4420366
  59.2141810 107.5012790  31.9192446  72.3457901 121.2479612  32.2247013
  71.9524846 120.6945810  32.8994657  73.1624041 121.5590190  32.6153531
  75.2625862 122.6637491  29.8167270  76.0035575 123.2644644  29.7371732
  75.4943784 121.9215129  29.2585312  70.2905888 125.0381301  29.1651676
  70.9177927 124.6558379  29.7789200  69.4333807 124.8195503  29.5307369
  73.5273946 124.3599207  30.8265596  73.5762101 125.2361330  30.4443365
  74.0696460 123.8176600  30.2537239  74.6533759 125.7982272  33.0145537
  74.5530486 126.7476629  32.9457628  74.4355301 125.4700511  32.1421607
  70.6270154 123.1690813  31.2317042  71.4901616 122.8127618  31.4420366
  70.0535565 122.8304708  31.9192446  26.4931226  35.8046811  17.4950718
  27.0371130  36.4176769  17.0005673  25.9118070  36.3626389  18.0117731
  29.8160020  35.2642865  16.8312039  29.0255564  35.2467003  16.2916539
  29.5793375  35.8031158  17.5861076  24.6157284  33.4506577  19.3579475
  25.4848444  33.6247230  18.9966109  24.1364036  34.2700994  19.2355204
  36.2749760  45.1595203   8.7624749  36.9128170  45.0401951   8.0588089
  36.1570603  46.1076047   8.8212701  33.0839466  45.1122631   8.6986274
  32.7457978  44.9963696   7.8106809  33.9529234  44.7113797   8.6787280
  33.5659249  46.2657483  14.6572479  33.5547890  45.8710281  13.7852983
  33.7279889  45.5323556  15.2506251  30.2866510  49.0494595  13.6051663
  29.9956376  49.9540226  13.4898330  30.9223495  49.0911123  14.3195733
  31.2122717  46.4271444  10.1953023  31.8086289  46.2027466   9.4809986
  31.2697689  45.6856189  10.7978471  41.2299456  42.8221890   6.7410936
  41.9624628  42.2521107   6.9748765  40.4738811  42.4343491   7.1817441
  38.7524876  36.5343465  11.2005544  38.4208201  37.4038875  10.9766759
  38.1570489  36.2179749  11.8799575  35.2456395  48.7356010  10.6001457
  34.9457119  49.6381049  10.4917264  34.9007455  48.4688194  11.4522610
  38.6453539  41.2538551   8.2798894  37.7370417  41.1853959   7.9857655
  38.5941135  41.7310496   9.1080720  30.2277175  55.5000331   3.5672425
  30.1501205  56.4508156   3.6460905  29.6238819  55.1546203   4.2247351
  32.7194405  42.6728196  16.2233792  31.9427739  43.2322116  16.2136656
  33.3584968  43.1584979  16.7448662  40.5115186  39.4554989  10.0576768
  39.8689566  39.7487522   9.4116563  40.0070114  39.3407909  10.8629965
  30.9740777  45.4813650  15.7851759  31.7155462  46.0198694  15.5086582
  30.2677763  46.1079938  15.9423310  36.4496117  47.6242790  14.3823920
  36.8579473  47.1825201  13.6378553  35.7273378  47.0495418  14.6358113
  32.8027187  42.5615397  11.7557477  33.6488382  42.9854810  11.8992126
  32.7425825  41.9049021  12.4496040  36.7724932  48.1843981   8.1376209
  36.1433794  48.3489695   7.4352277  36.3850594  48.5985590   8.9087173
  40.6514164  49.1198419   5.4920573  39.9665202  49.4997320   4.9417606
  40.7358013  49.7293745   6.2252521  35.9526632  40.2219765  13.4138651
  35.7087564  40.9761826  12.8772926  36.2286563  40.6005113  14.2485898
  37.9065095  46.7658378  12.0915916  38.1181990  47.4090137  11.4150297
  37.8594843  45.9320694  11.6237846  29.2176975  47.4689870   8.3406057
  29.7878332  47.8977139   7.7023542  29.8085086  47.1872455   9.0390243
  29.7102141  42.6353298  16.5867069  29.0800802  43.3169579  16.8202465
  29.6038229  42.5236379  15.6420207  39.0210923  49.6430333  10.2638274
  39.8428367  49.2410520   9.9820955  39.0173326  49.5398567  11.2154389
  32.7867527  49.1914376  12.4198984  32.8511959  49.6534784  13.2557156
  32.0778450  48.5611741  12.5481294  47.1116916  45.9869081   6.6123245
  46.3580625  45.4176480   6.4567250  47.2464457  45.9531746   7.5593880
  28.9882884  36.9374064  18.9492320  28.5949829  36.3840262  19.6239964
  29.8049024  37.2484642  19.3398837  31.9050845  38.3531943  16.5412576
  32.6460558  38.9539096  16.4617039  32.1368768  37.6109581  15.9830619
  27.0492183  43.5388310  14.8190806  26.9345698  42.6373567  15.1197905
  26.1936701  43.7852007  14.4675623  34.1284021  51.4806050  16.4178307
  33.6847875  50.6942429  16.0999211  34.7901234  51.6685201  15.7522197
  28.8871142  53.0101852  10.9438985  29.4378567  52.8818915  10.1715979
  28.0482618  53.3096741  10.5933878  36.2265259  51.7608850  14.4459708
  36.2083734  52.5817731  13.9539977  37.1485179  51.6362925  14.6709849
  32.6838313  49.2752980  15.2883216  33.2166650  48.5141268  15.0582524
  32.1552394  48.9826632  16.0307371  39.0283872  46.5987993   7.9169075
  38.3707546  47.2887254   8.0049203  39.8324271  46.9884425   8.2603061
  37.8389330  44.9532365   5.9673016  38.3521212  45.5862357   6.4694726
  38.4890554  44.3533561   5.6016376  38.6051127  49.9338367   4.0952159
  38.1513454  49.0929277   4.1517349  37.9745093  50.5699765   4.4326939
  37.0484066  51.7714864   5.0301977  37.3407040  52.3319921   4.3114343
  37.5582686  52.0643425   5.7855136  32.0117691  52.5495215   6.1195430
  31.9693870  52.7756061   5.1903962  32.9280390  52.3158589   6.2681231
  35.4583325  43.0179282  13.0176059  35.8132712  43.2450755  13.8770525
  36.1055456  43.3497659  12.3953315  41.2150441  48.2074245   8.7336660
  41.6486948  48.1149534   9.5819714  41.9282022  48.1831746   8.0956676
  34.9478336  51.8076339  10.2669761  35.0015358  52.3767275  11.0347477
  34.0793118  51.9778224   9.9023798  42.0765991  48.2497946  11.2669545
  42.2701881  49.1543756  11.5128820  41.9766609  47.7905365  12.1008130
  33.7302302  38.1355836  13.7659873  33.0830217  38.8345786  13.6724349
  34.5003317  38.5691980  14.1336121  37.1381100  48.4004688  16.8410426
  36.9866606  48.1715240  15.9240510  37.1285779  49.3575290  16.8541771
  33.9066436  45.9736601  11.8256692  34.8358496  46.1247761  11.6525660
  33.4857466  46.0620622  10.9705339  32.7054768  49.9987266   9.5955230
  32.5665853  49.6306050  10.4681168  31.9169364  50.5134905   9.4239188
  34.2559983  49.3768868   6.9844068  33.9209815  49.3369638   7.8801718
  33.7563929  48.7113584   6.5114478  28.2304227  44.7836498  12.5096649
  28.0924025  44.0516737  13.1108188  29.1409150  44.6945398  12.2280837
  30.8586528  44.4956458  11.9980329  31.5686146  43.8549650  11.9566947
  30.8155836  44.7469353  12.9206509  38.8473306  51.4323811  14.9186908
  38.7885852  50.7483031  14.2517491  39.2492825  52.1742801  14.4667534
  29.5715461  41.4821676  13.8175968  29.0352819  41.0312414  14.4697564
  28.9832170  41.6167584  13.0746432  27.8664005  58.2485725   7.7120627
  28.1060603  58.8804249   8.3899645  27.0233201  57.8973765   7.9985986
  38.8490713  49.3963395  13.1500888  37.9617492  49.0589317  13.2727286
  39.4189265  48.6646426  13.3869653  32.3791867  54.0564847  10.1162131
  32.3062038  54.8619819  10.6281435  31.9369260  54.2556813   9.2910152
  32.1681646  53.2936617   3.6264952  31.3849168  53.8358298   3.7203177
  32.8674392  53.8110597   4.0259193  43.3308054  44.8071612   7.9117449
  43.3197930  45.6896328   7.5411382  42.4625433  44.4543163   7.7171986
  34.8390550  53.9551681  12.2720289  35.5518523  54.5899146  12.1996191
  34.3480579  54.0515547  11.4560291  29.8902464  51.7046125  13.0925860
  30.5911923  52.3382608  13.2455254  29.4197579  52.0460856  12.3321500
  37.6903750  44.2590732  10.9178411  37.0375200  44.5066640  10.2630863
  38.0684130  43.4454870  10.5840888  34.6510924  54.2950425   5.0206581
  34.8333318  53.4772081   5.4834333  35.4743910  54.5118118   4.5831471
  34.9853089  53.2218611   2.2821629  35.5140856  52.7111065   1.6691791
  35.2481309  52.9061141   3.1467162  33.7391323  45.0010543  17.4044448
  33.0631960  44.9004673  18.0746823  34.5618957  44.8449757  17.8680445
  25.4870182  51.2382480  10.0256963  26.0723619  50.4926168  10.1584867
  25.2895020  51.5486437  10.9093627  28.3408837  54.2733727   5.0419405
  27.6719212  54.7579855   4.5583445  28.2021707  54.5202948   5.9562784
  32.4814106  56.3077471  11.6402064  33.0332414  56.4709092  12.4051149
  32.8220299  56.8981909  10.9682089  26.9330872  40.7275753  15.8896983
  27.5602910  40.3452830  16.5034507  26.0758790  40.5089955  16.2552675
  37.3324980  51.1338728  17.4950718  37.8764884  51.7468687  17.0005673
  36.7511825  51.6918307  18.0117731  35.6182493  54.2559446   8.6265746
  35.4933633  53.4549186   8.1176691  36.2761584  54.7505640   8.1379716
  37.6817401  52.0568466  10.2545296  36.7347737  51.9373818  10.1823623
  38.0300175  51.1690964  10.3371557  30.0416975  37.9462605  14.0783538
  30.5651377  38.1924902  14.8409847  29.8229308  38.7782640  13.6586675
  34.6863835  51.8521183   6.4549648  34.5388797  50.9237890   6.6357218
  35.5117328  51.8741273   5.9706723  38.2897957  52.6749741   7.5414521
  39.2144504  52.4692603   7.4038972  38.1213260  52.4266142   8.4503862
  33.1347084  40.0884622  10.1186527  32.8764862  41.0101692  10.1170857
  32.6032124  39.6915056  10.8086991  38.0793273  53.1935409   2.8976612
  38.2530150  52.6281831   2.1450465  38.5722164  53.9936304   2.7156102
  23.8970233  45.2050078  10.9640171  23.3523701  45.9809886  11.0960445
  24.7749582  45.5520882  10.8059293  43.9332664  45.9571832   4.5166912
  44.3763810  45.2079157   4.1186035  43.0559174  45.9481968   4.1340644
  24.6836254  44.3319974  13.8570328  23.9417990  44.4802609  14.4434958
  24.3628999  44.5928240  12.9937077  32.6279917  53.8735952  13.6550718
  32.9367044  53.6285099  14.5273418  33.4255399  54.0782591  13.1669588
  32.6500529  56.0273862   5.8856095  32.2105519  55.5350241   6.5788951
  33.4008646  55.4846830   5.6448170  30.0974401  51.5711871   7.9578396
  29.4754411  50.9082576   7.6580624  30.7679268  51.5973003   7.2752044
  30.1698929  40.0493659  17.5510902  30.2187084  40.9255782  17.1688672
  30.7121443  39.5071052  16.9782546  40.6553774  50.5934782  16.8312039
  39.8649318  50.5758921  16.2916539  40.4187129  51.1323076  17.5861076
  40.7751650  47.4427249  14.1444768  40.8249654  47.2777256  15.0860291
  40.6665573  46.5754508  13.7542649  38.0655412  43.4258177  15.4604075
  38.9665275  43.2864642  15.1688072  38.1403386  43.5912632  16.4002252
  32.3998217  40.8025031  14.3057261  31.5301527  41.0958598  14.0339849
  32.6357698  41.3865476  15.0264525  42.2769846  49.8624190  14.3886789
  41.9854655  50.2254171  15.2250250  41.6641978  49.1491198  14.2100122
  43.4765529  47.4277070   6.9089360  44.3112420  47.8666874   7.0726920
  43.6124657  46.9515723   6.0897605  40.5257035  44.9856805  12.8566847
  41.0011156  45.1784451  12.0485699  39.6022600  45.0415991  12.6110231
  35.1037251  37.0204648  11.8222681  35.6219195  37.7565675  11.4969170
  34.7492384  37.3268642  12.6569440  39.2258704  41.8622565  11.0895153
  40.1776126  41.9620663  11.1107377  39.0562154  41.0700833  11.5993237
  37.2473083  38.9478148  11.2754554  36.6523015  39.2283161  10.5801043
  36.9622780  39.4372049  12.0471295  41.7046781  45.0828685  10.2037453
  41.6723101  44.1444685  10.3897137  42.3147405  45.1612721   9.4703278
  41.8541270  41.8739728  10.2495736  41.3380319  41.0898185  10.0625665
  42.7381218  41.5458445  10.4142255  47.5223331  46.1444691   9.3443489
  48.2526720  45.8829980   9.9051193  46.9130277  45.4073413   9.3845557
  45.6038628  44.2852554   9.9417941  44.8771792  44.1508519   9.3334432
  45.1885915  44.5929383  10.7474659  33.4268805  48.0042484  17.7065314
  34.3471814  48.1821083  17.9005360  33.3918388  47.0598529  17.5545013
  26.4230877  45.9143518  10.3488095  26.6416887  46.8460626  10.3676129
  26.8356651  45.5551493  11.1342899  31.2958743  41.4876724  19.7390844
  31.1955470  42.4371081  19.6702935  31.0780285  41.1594963  18.8666914
  31.1590013  44.9173863  18.5555905  30.6757094  45.7174223  18.7619794
  31.2450952  44.9281808  17.6023349  27.0863350  48.8078398  10.5924339
  28.0406604  48.7762340  10.5254271  26.8875874  48.3469021  11.4074565
  27.6762732  47.3779514  13.1595137  28.4955621  47.8723592  13.1829974
  27.9499540  46.4611482  13.1312704  43.2216423  40.5064406   7.2951372
  43.8160914  40.2660142   6.5844681  43.2943007  39.7871537   7.9224909
  25.4413579  54.3498017   7.6094537  25.3068047  53.5898418   7.0432535
  25.0245641  55.0738917   7.1423326  45.5287496  43.8130607   6.0694793
  44.9687054  43.8823796   6.8426356  44.9230999  43.6371592   5.3494290
  28.5982705  55.2467334   7.8212980  28.4815089  56.1912767   7.7191670
  27.7775151  54.9440896   8.2098779  22.9297647  41.7117648  13.8587334
  23.5756510  41.2016602  14.3474559  22.7214798  42.4486329  14.4330759
  35.4551039  48.7798495  19.3579475  36.3242198  48.9539147  18.9966109
  34.9757790  49.5992912  19.2355204  29.6237219  55.8995596  11.0368908
  30.5264466  55.9319206  11.3535403  29.3974589  54.9696047  11.0515244
  31.3790821  54.6526583   7.6978987  30.4286452  54.6528444   7.5843359
  31.6823307  53.9059317   7.1815021  27.2695138  38.8585265  17.9562348
  28.1326599  38.5022070  18.1665673  26.6960548  38.5199159  18.6437752
  47.1143514  60.4887121   8.7624749  47.7521924  60.3693868   8.0588089
  46.9964357  61.4367965   8.8212701  43.9233221  60.4414549   8.6986274
  43.5851732  60.3255614   7.8106809  44.7922989  60.0405714   8.6787280
  39.7820036  62.2950026   4.6883165  39.2184902  62.2039962   3.9199453
  39.6672431  61.4749930   5.1685657  44.4053004  61.5949401  14.6572479
  44.3941645  61.2002199  13.7852983  44.5673643  60.8615473  15.2506251
  37.3284468  63.7901217   7.5267385  38.1205760  63.4492042   7.1113685
  37.5681119  63.8996192   8.4469539  45.3619595  65.9620993  -0.0002370
  44.7107575  66.5475074  -0.3868356  46.1563958  66.4927188   0.0592667
  39.2875222  63.0510130   0.3984764  40.0606098  62.5039117   0.2597640
  39.6400621  63.9154380   0.6099225  41.1260265  64.3786513  13.6051663
  40.8350131  65.2832144  13.4898330  41.7617249  64.4203040  14.3195733
  42.0516472  61.7563361  10.1953023  42.6480044  61.5319384   9.4809986
  42.1091443  61.0148107  10.7978471  41.6241500  59.2102797  -1.9696786
  41.8767021  58.6884318  -2.7313323  40.6866059  59.0468942  -1.8670102
  46.6684783  58.2138575   5.8377957  47.4547872  57.7957998   5.4868374
  46.9323487  59.1184667   6.0059606  46.8394860  63.6511425   0.5366614
  46.2040693  63.7246052   1.2487519  46.5092267  64.2405024  -0.1414307
  52.0693210  58.1513808   6.7410936  52.8018382  57.5813025   6.9748765
  51.3132566  57.7635409   7.1817441  41.3437789  61.1130902   0.2327589
  41.2274047  60.4375806   0.9008673  41.4540049  60.6263276  -0.5840258
  43.6869330  60.5741050   3.9374278  43.3227537  60.0471671   4.6487200
  44.5436446  60.1839519   3.7640764  49.5918630  51.8635382  11.2005544
  49.2601955  52.7330793  10.9766759  48.9964244  51.5471666  11.8799575
  43.3274817  55.6030949  -1.0664373  43.4949219  56.4711186  -0.6993902
  43.1371986  55.7658231  -1.9903084  46.0850150  64.0647928  10.6001457
  45.7850873  64.9672967  10.4917264  45.7401209  63.7980111  11.4522610
  39.5362631  60.5161725   6.6338161  38.6113128  60.3837939   6.8415853
  39.7847045  61.2955944   7.1308104  49.4847294  56.5830468   8.2798894
  48.5764171  56.5145877   7.9857655  49.4334890  57.0602413   9.1080720
  43.3064038  58.0588607  -0.0817706  43.1863663  58.5045658   0.7567774
  42.6116626  58.4073924  -0.6404168  36.8971442  60.1594999   7.4681951
  37.0263824  60.4129477   8.3821362  36.2168894  60.7522707   7.1486606
  41.0670930  70.8292249   3.5672425  40.9894959  71.7800074   3.6460905
  40.4632573  70.4838121   4.2247351  43.5588160  58.0020114  16.2233792
  42.7821494  58.5614034  16.2136656  44.1978723  58.4876897  16.7448662
  51.3508940  54.7846907  10.0576768  50.7083320  55.0779440   9.4116563
  50.8463869  54.6699827  10.8629965  49.0049104  58.5310080   0.7462628
  49.9166960  58.7637467   0.5710325  48.4958751  59.1147124   0.1837706
  41.8134532  60.8105567  15.7851759  42.5549216  61.3490611  15.5086582
  41.1071517  61.4371856  15.9423310  47.2889871  62.9534708  14.3823920
  47.6973228  62.5117118  13.6378553  46.5667133  62.3787335  14.6358113
  43.6420942  57.8907315  11.7557477  44.4882137  58.3146728  11.8992126
  43.5819579  57.2340939  12.4496040  47.6118686  63.5135898   8.1376209
  46.9827549  63.6781613   7.4352277  47.2244348  63.9277508   8.9087173
  51.4907918  64.4490336   5.4920573  50.8058956  64.8289238   4.9417606
  51.5751767  65.0585663   6.2252521  46.7920387  55.5511683  13.4138651
  46.5481319  56.3053743  12.8772926  47.0680317  55.9297031  14.2485898
  48.7458850  62.0950295  12.0915916  48.9575745  62.7382055  11.4150297
  48.6988598  61.2612612  11.6237846  46.3485079  54.7068116   8.9952488
  45.4869558  55.0049369   9.2869226  46.3747513  54.9238515   8.0633521
  43.1646648  63.2510306   5.4026294  43.6284994  63.5298009   4.6130917
  42.9003446  62.3493751   5.2199385  40.0570729  62.7981788   8.3406057
  40.6272086  63.2269056   7.7023542  40.6478841  62.5164373   9.0390243
  42.1015534  59.3733459   2.2115859  42.8039577  59.8254503   2.6789786
  41.7696163  58.7317278   2.8395752  40.5495896  57.9645215  16.5867069
  39.9194556  58.6461496  16.8202465  40.4431983  57.8528297  15.6420207
  35.8440868  57.6317012   7.5132993  35.0539922  57.8874540   7.0373103
  36.3352115  58.4465349   7.6185033  49.8604678  64.9722251  10.2638274
  50.6822121  64.5702438   9.9820955  49.8567080  64.8690485  11.2154389
  37.7955613  57.9961591   4.4716470  36.9986777  58.1080285   4.9899965
  37.5681206  58.3348243   3.6057360  43.6261281  64.5206294  12.4198984
  43.6905714  64.9826701  13.2557156  42.9172205  63.8903659  12.5481294
  34.1278571  57.8847502   9.9447984  34.3786609  58.7694512  10.2105560
  34.6638119  57.7052103   9.1723075  57.9510671  61.3160999   6.6123245
  57.1974379  60.7468397   6.4567250  58.0858212  61.2823664   7.5593880
  43.3409299  66.1874401   2.2877964  43.2054973  67.0325937   2.7162812
  43.8819111  66.3893679   1.5243898  39.8276638  52.2665981  18.9492320
  39.4343584  51.7132180  19.6239964  40.6442779  52.5776560  19.3398837
  36.7938696  63.7049840   2.8605890  37.3063217  64.4993090   3.0111454
  37.4461409  63.0076130   2.7939491  38.6033581  66.8215596   4.9428643
  38.7800209  67.7433560   4.7549627  39.3990414  66.5074015   5.3723023
  42.7444599  53.6823860  16.5412576  43.4854313  54.2831014  16.4617039
  42.9762522  52.9401498  15.9830619  37.8885937  58.8680228  14.8190806
  37.7739452  57.9665485  15.1197905  37.0330455  59.1143924  14.4675623
  44.9677775  66.8097968  16.4178307  44.5241629  66.0234347  16.0999211
  45.6294989  66.9977118  15.7522197  39.7264896  68.3393770  10.9438985
  40.2772321  68.2110833  10.1715979  38.8876372  68.6388659  10.5933878
  47.0659013  67.0900768  14.4459708  47.0477488  67.9109649  13.9539977
  47.9878933  66.9654843  14.6709849  43.5232067  64.6044897  15.2883216
  44.0560404  63.8433186  15.0582524  42.9946148  64.3118549  16.0307371
  46.6901762  49.7104963  10.8176858  46.3466032  50.6006605  10.7415969
  47.0580725  49.5206621   9.9546443  34.7587613  62.0338494   3.6365460
  35.5962835  62.4435502   3.4199168  34.9365881  61.0937936   3.6065654
  46.6552045  59.7013574  -0.6750707  46.1398668  60.4718179  -0.4362320
  46.3829353  59.0278711  -0.0517645  44.2399156  54.5463275   4.3834531
  43.3840752  54.1570126   4.2040170  44.6526108  54.6255236   3.5234317
  45.7698303  52.0809619   8.7826091  45.2663098  52.0439754   7.9693896
  46.0628910  52.9902361   8.8422748  42.0141189  52.1648348   7.7892273
  42.8794185  51.9691157   7.4298162  42.0818697  51.9358700   8.7161630
  51.6286319  62.4545929   1.2602467  50.8515762  62.1157089   0.8157629
  52.3077800  62.4598552   0.5857432  46.4438348  57.5740667   1.1509074
  46.1388484  57.8886816   2.0019217  47.3968790  57.6522086   1.1936407
  44.8884780  63.7330890   2.8002028  44.3606142  62.9983649   2.4875266
  44.3872283  64.5105566   2.5541997  49.8677626  61.9279910   7.9169075
  49.2101300  62.6179172   8.0049203  50.6718025  62.3176342   8.2603061
  39.6203508  54.3950556   5.1608640  40.1947260  54.1725738   4.4281833
  40.2074490  54.4639251   5.9137241  48.6783085  60.2824283   5.9673016
  49.1914967  60.9154275   6.4694726  49.3284309  59.6825479   5.6016376
  39.9473095  56.4255017  -0.8195475  39.1110407  56.7629704  -0.4986200
  39.8077864  56.2903997  -1.7568338  41.9226175  51.2691805   3.8883709
  41.2690588  50.9540822   3.2640324  41.8806649  50.6467546   4.6143532
  43.0337380  61.5511100  -4.1962999  42.1264442  61.3200354  -3.9971850
  43.5308412  60.7548719  -4.0089017  45.9405459  70.2608607  -1.2766313
  45.2667158  70.5640304  -0.6681355  46.3271281  71.0637688  -1.6260856
  45.1563916  57.7573739   8.2131357  44.2386477  57.9788686   8.0553045
  45.5724059  57.8320049   7.3543064  45.9398963  59.1565154   3.3434037
  46.6870782  59.6686552   3.0341159  46.2090553  58.8349207   4.2038431
  44.2125614  61.6523695   0.3260991  43.3036833  61.3682728   0.4233461
  44.2420697  62.0722774  -0.5335702  49.4444881  65.2630285   4.0952159
  48.9907208  64.4221194   4.1517349  48.8138848  65.8991683   4.4326939
  48.3877801  56.1922271   5.3252826  47.6500557  55.6799657   5.6563069
  48.6404574  55.7522652   4.5136103  47.8877820  67.1006781   5.0301977
  48.1800795  67.6611838   4.3114343  48.3976441  67.3935342   5.7855136
  48.4889428  48.9698523   5.9194596  48.7948305  48.1095886   5.6320511
  49.2142033  49.5616143   5.7193590  34.7813784  59.3729209   4.3076194
  34.5838184  58.7798570   3.5827260  34.2260448  59.0681419   5.0252132
  42.7610508  59.2652316   6.4270787  42.8159117  58.3126152   6.3513263
  41.9501710  59.4211755   6.9112085  43.9101701  63.1932439  -2.3350930
  43.4721131  62.4768298  -2.7945293  44.6512142  63.4208554  -2.8965839
  40.7002868  57.8829375   4.1861166  39.8870733  58.1823546   4.5926358
  41.1961862  57.4885064   4.9035648  42.8511445  67.8787132   6.1195430
  42.8087624  68.1047979   5.1903962  43.7674144  67.6450507   6.2681231
  46.2977079  58.3471200  13.0176059  46.6526467  58.5742673  13.8770525
  46.9449210  58.6789577  12.3953315  52.0274816  61.4689636   3.7225388
  51.8892715  61.6591232   2.7946578  51.6711035  62.2309019   4.1793440
  40.1916942  55.4547731   9.8022401  40.8316322  55.3136490   9.1045364
  39.3594473  55.1682244   9.4261003  52.0544196  63.5366163   8.7336660
  52.4880702  63.4441452   9.5819714  52.7675776  63.5123663   8.0956676
  40.9677246  64.7550161   5.9157393  41.7617845  64.2600481   5.7139968
  40.2568939  64.2268024   5.5525099  45.7872091  67.1368257  10.2669761
  45.8409113  67.7059193  11.0347477  44.9186872  67.3070142   9.9023798
  37.2760010  58.8993243   1.9917146  36.3457598  58.8377699   2.2087108
  37.3717482  58.3769196   1.1953787  37.1945559  55.4248056   4.5795387
  37.4552376  56.3393389   4.4704548  38.0162731  54.9572498   4.7292000
  38.6670484  56.8385813  11.7494212  39.3393538  56.6303175  11.1006861
  37.8400271  56.6407899  11.3099444  52.9159745  63.5789863  11.2669545
  53.1095635  64.4835674  11.5128820  52.8160364  63.1197282  12.1008130
  44.5696056  53.4647754  13.7659873  43.9223971  54.1637704  13.6724349
  45.3397071  53.8983898  14.1336121  47.9774854  63.7296606  16.8410426
  47.8260360  63.5007158  15.9240510  47.9679534  64.6867208  16.8541771
  44.7460190  61.3028519  11.8256692  45.6752250  61.4539678  11.6525660
  44.3251220  61.3912540  10.9705339  43.5448522  65.3279183   9.5955230
  43.4059608  64.9597968  10.4681168  42.7563118  65.8426823   9.4239188
  44.1396674  70.4288280   0.9380767  44.3148430  69.9576323   1.7526389
  43.4529462  71.0554046   1.1662027  45.0953737  64.7060786   6.9844068
  44.7603570  64.6661556   7.8801718  44.5957683  64.0405502   6.5114478
  39.0697981  60.1128416  12.5096649  38.9317779  59.3808655  13.1108188
  39.9802905  60.0237316  12.2280837  48.0312929  62.0516820  -2.7418872
  47.4142100  61.3263648  -2.8385820  47.5629417  62.8126181  -3.0851798
  41.6980282  59.8248375  11.9980329  42.4079901  59.1841568  11.9566947
  41.6549590  60.0761270  12.9206509  49.6867061  66.7615729  14.9186908
  49.6279607  66.0774949  14.2517491  50.0886579  67.5034719  14.4667534
  40.4109216  56.8113593  13.8175968  39.8746573  56.3604332  14.4697564
  39.8225924  56.9459502  13.0746432  38.7057759  73.5777643   7.7120627
  38.9454358  74.2096167   8.3899645  37.8626956  73.2265683   7.9985986
  49.6884468  64.7255313  13.1500888  48.8011247  64.3881234  13.2727286
  50.2583019  63.9938344  13.3869653  31.3413615  61.0579404   6.4743939
  32.0284655  60.7441134   5.8864954  31.1861744  61.9620769   6.2011190
  36.1448337  55.9469601  10.9028963  36.0606526  55.3395270  10.1679373
  35.3231044  56.4378619  10.9038459  43.2185621  69.3856765  10.1162131
  43.1455793  70.1911736  10.6281435  42.7763014  69.5848731   9.2910152
  43.0075401  68.6228535   3.6264952  42.2242923  69.1650215   3.7203177
  43.7068146  69.1402515   4.0259193  46.3172051  54.4323164   6.2699158
  46.8140751  53.6793127   5.9500228  45.5459033  54.4687481   5.7042367
  54.1701808  60.1363530   7.9117449  54.1591685  61.0188245   7.5411382
  53.3019188  59.7835081   7.7171986  45.6784305  69.2843599  12.2720289
  46.3912277  69.9191064  12.1996191  45.1874334  69.3807465  11.4560291
  47.4001832  63.1894852   3.8437581  46.4658111  63.3096314   3.6742285
  47.5778500  62.2867318   3.5797591  42.9007020  56.5740547   5.9970842
  42.5304807  56.0211588   6.6851748  43.3966112  55.9698681   5.4445842
  50.7874383  59.0312171   4.3787615  51.2534835  59.8640163   4.3047918
  51.2381884  58.5657153   5.0832874  40.7296218  67.0338042  13.0925860
  41.4305678  67.6674525  13.2455254  40.2591333  67.3752774  12.3321500
  48.8550614  65.3755992   1.3773767  49.1310458  65.2612587   2.2867641
  47.9855113  64.9773477   1.3385940  48.7591046  51.3992758   8.4178517
  47.8454126  51.6296985   8.5860724  49.1884147  51.4831202   9.2692549
  48.5297504  59.5882650  10.9178411  47.8768955  59.8358557  10.2630863
  48.9077884  58.7746788  10.5840888  45.4904678  69.6242343   5.0206581
  45.6727073  68.8063999   5.4834333  46.3137664  69.8410035   4.5831471
  45.8246844  68.5510528   2.2821629  46.3534610  68.0402983   1.6691791
  46.0875063  68.2353058   3.1467162  44.5785077  60.3302461  17.4044448
  43.9025714  60.2296590  18.0746823  45.4012711  60.1741675  17.8680445
  36.3263936  66.5674397  10.0256963  36.9117373  65.8218085  10.1584867
  36.1288775  66.8778354  10.9093627  39.1802592  69.6025645   5.0419405
  38.5112967  70.0871773   4.5583445  39.0415461  69.8494865   5.9562784
  30.9181591  59.1379998   8.7461406  30.9565691  58.6043588   9.5398524
  30.4121884  58.6115203   8.1272383  43.3207860  71.6369388  11.6402064
  43.8726168  71.8001010  12.4051149  43.6614054  72.2273826  10.9682089
  38.2972353  53.9844538  12.2423948  38.3613680  54.8459369  11.8301346
  38.2339474  53.3718540  11.5096307  37.7724626  56.0567671  15.8896983
  38.3996665  55.6744748  16.5034507  36.9152545  55.8381873  16.2552675
  48.1718735  66.4630646  17.4950718  48.7158639  67.0760604  17.0005673
  47.5905579  67.0210224  18.0117731  34.5490169  57.8644100   1.8215337
  34.8443610  56.9554778   1.7682391  33.6478205  57.8431839   1.4996340
  46.4576248  69.5851364   8.6265746  46.3327387  68.7841104   8.1176691
  47.1155339  70.0797557   8.1379716  38.0784416  55.9400096   7.8042886
  37.3571002  56.5536064   7.6650359  38.8677672  56.4757861   7.7259532
  48.5211156  67.3860384  10.2545296  47.5741491  67.2665735  10.1823623
  48.8693929  66.4982882  10.3371557  40.8810729  53.2754523  14.0783538
  41.4045131  53.5216819  14.8409847  40.6623063  54.1074558  13.6586675
  36.2778010  55.5458198   1.9454663  35.9490717  54.6655576   1.7629769
  36.6317381  55.4905866   2.8331052  45.5257589  67.1813100   6.4549648
  45.3782552  66.2529808   6.6357218  46.3511083  67.2033191   5.9706723
  39.3919834  55.8331167   2.3130140  39.7315906  56.3617089   1.5908749
  39.8391954  56.1711573   3.0888707  49.1291711  68.0041659   7.5414521
  50.0538259  67.7984520   7.4038972  48.9607014  67.7558060   8.4503862
  42.0863274  54.2168218  11.7633208  41.7460095  53.4176031  12.1653888
  41.3802281  54.5169929  11.1910042  42.7379746  51.3017530  10.2160531
  43.5605815  50.8278009  10.0939422  42.9817810  52.0808014  10.7159218
  41.3787981  54.3305789   0.5123433  42.0996343  54.7087042   0.0087150
  40.7553285  55.0494666   0.6158411  45.5219104  55.0350938   1.4481765
  45.7382718  55.9175576   1.1470594  45.0413171  54.6437151   0.7187407
  40.2618325  57.9936651   8.0252510  40.1162906  58.3076954   8.9176791
  39.7843529  58.6121551   7.4723409  42.1214708  54.9839199   8.0733400
  42.1076277  54.0880292   7.7365697  42.8387136  54.9909863   8.7071686
  43.9740839  55.4176539  10.1186527  43.7158616  56.3393610  10.1170857
  43.4425879  55.0206974  10.8086991  48.9187027  68.5227326   2.8976612
  49.0923905  67.9573749   2.1450465  49.4115919  69.3228221   2.7156102
  34.7363987  60.5341996  10.9640171  34.1917455  61.3101803  11.0960445
  35.6143337  60.8812800  10.8059293  41.5251604  53.8653579   3.3420970
  41.6467515  52.9370226   3.5411857  41.2353646  53.8792265   2.4299285
  44.3942794  51.5508490   6.4787690  44.4164491  51.6147823   5.5239669
  44.8110853  50.7112998   6.6728196  54.7726418  61.2863749   4.5166912
  55.2157564  60.5371075   4.1186035  53.8952929  61.2773886   4.1340644
  49.9062200  67.8394091  -0.0026489  50.6013104  68.4600784   0.2160825
  50.2485350  66.9889442   0.2725889  35.5230009  59.6611892  13.8570328
  34.7811745  59.8094527  14.4434958  35.2022753  59.9220157  12.9937077
  51.8053623  65.2893796   1.5260841  52.3304947  65.6281069   0.8010161
  51.7175975  64.3540812   1.3423976  43.4673672  69.2027870  13.6550718
  43.7760798  68.9577017  14.5273418  44.2649154  69.4074508  13.1669588
  43.4894284  71.3565780   5.8856095  43.0499274  70.8642158   6.5788951
  44.2402401  70.8138747   5.6448170  35.9686623  67.5477320   5.8880723
  36.7944643  67.2481092   5.5079366  35.6180675  66.7784943   6.3370511
  40.9368156  66.9003789   7.9578396  40.3148165  66.2374494   7.6580624
  41.6073023  66.9264921   7.2752044  34.1695228  65.4663647   6.8469656
  33.3327136  65.0385821   6.6653658  34.1418873  65.6596090   7.7840447
  41.0092683  55.3785577  17.5510902  41.0580839  56.2547700  17.1688672
  41.5515197  54.8362970  16.9782546  51.4947529  65.9226700  16.8312039
  50.7043073  65.9050839  16.2916539  51.2580884  66.4614994  17.5861076
  51.6145404  62.7719166  14.1444768  51.6643409  62.6069174  15.0860291
  51.5059327  61.9046425  13.7542649  40.4981663  65.4507712   1.4336857
  40.6469783  66.1343176   0.7803530  41.3048106  65.4312802   1.9486313
  48.9049166  58.7550094  15.4604075  49.8059029  58.6156559  15.1688072
  48.9797141  58.9204549  16.4002252  43.2391972  56.1316949  14.3057261
  42.3695281  56.4250515  14.0339849  43.4751452  56.7157394  15.0264525
  53.1163601  65.1916108  14.3886789  52.8248409  65.5546088  15.2250250
  52.5035732  64.4783116  14.2100122  54.3159283  62.7568988   6.9089360
  55.1506175  63.1958792   7.0726920  54.4518412  62.2807641   6.0897605
  51.3650789  60.3148723  12.8566847  51.8404911  60.5076369  12.0485699
  50.4416354  60.3707908  12.6110231  38.2534296  61.4772890   2.4397926
  38.0080338  60.5735220   2.6378136  38.4230210  61.4790040   1.4977404
  45.9431006  52.3496566  11.8222681  46.4612949  53.0857593  11.4969170
  45.5886138  52.6560559  12.6569440  37.5229943  57.2101247  -0.0615913
  36.8299188  57.2845602  -0.7175877  37.2781695  56.4461591   0.4605604
  46.1943600  48.7696849   7.3423578  46.4745353  48.1020038   7.9684004
  46.9794207  48.9625944   6.8298242  43.9977068  67.9455843  -1.0951396
  43.4251035  68.5646030  -1.5480924  44.5709862  68.4955204  -0.5611474
  50.0652458  57.1914483  11.0895153  51.0169881  57.2912580  11.1107377
  49.8955908  56.3992751  11.5993237  48.0866838  54.2770066  11.2754554
  47.4916770  54.5575079  10.5801043  47.8016534  54.7663967  12.0471295
  47.2174328  68.2292993   0.0357187  48.1505001  68.1638554   0.2390062
  47.1297541  69.0649259  -0.4228281  49.8462345  67.5458863  -3.0038866
  49.7675976  67.2118727  -2.1103108  50.6672011  68.0380631  -3.0047394
  52.5440536  60.4120602  10.2037453  52.5116856  59.4736603  10.3897137
  53.1541160  60.4904639   9.4703278  44.3823867  59.2816655  -3.7535343
  45.3282971  59.1522863  -3.6846925  44.0038112  58.5431317  -3.2765915
  52.6935024  57.2031646  10.2495736  52.1774073  56.4190102  10.0625665
  53.5774973  56.8750362  10.4142255  50.3545751  50.9472661   6.2091549
  50.1570572  50.6387749   7.0934881  50.9645457  51.6734300   6.3389478
  58.3617086  61.4736609   9.3443489  59.0920474  61.2121897   9.9051193
  57.7524031  60.7365331   9.3845557  56.4432383  59.6144472   9.9417941
  55.7165546  59.4800437   9.3334432  56.0279670  59.9221300  10.7474659
  44.2662559  63.3334401  17.7065314  45.1865569  63.5113000  17.9005360
  44.2312142  62.3890447  17.5545013  33.4844724  58.5272995   6.6318588
  33.1647509  57.6738303   6.3392962  32.9378152  58.7421573   7.3876556
  37.2624632  61.2435436  10.3488095  37.4810642  62.1752544  10.3676129
  37.6750406  60.8843410  11.1342899  44.1828850  51.7503521   2.3363783
  43.3729578  51.4050606   2.7119029  44.8713267  51.4411065   2.9251395
  46.1119398  50.8281568   3.9588080  46.6650436  51.2477022   4.6178103
  46.3489484  49.9017316   4.0011036  42.1352497  56.8168642  19.7390844
  42.0349224  57.7662999  19.6702935  41.9174039  56.4886881  18.8666914
  33.3532984  62.1475907   8.6011710  32.6596456  61.7329859   8.0881664
  34.1005975  62.1896443   8.0045129  49.4898205  52.9382093   3.4666744
  48.9096874  53.5966897   3.0844797  49.2234138  52.1159438   3.0554162
  47.9401771  52.3387151   5.6688064  48.4401550  52.4503686   4.8602383
  48.5837379  52.0348204   6.3088873  41.9983767  60.2465781  18.5555905
  41.5150849  61.0466141  18.7619794  42.0844706  60.2573726  17.6023349
  35.2669727  62.0794160   6.4777725  35.2440415  62.1781848   5.5259608
  35.5770363  62.9259311   6.7994891  37.9257105  64.1370315  10.5924339
  38.8800358  64.1054258  10.5254271  37.7269628  63.6760939  11.4074565
  38.5156487  62.7071431  13.1595137  39.3349376  63.2015510  13.1829974
  38.7893295  61.7903400  13.1312704  48.2723083  55.0982184   2.5223092
  47.3848938  55.3831834   2.3043287  48.6877072  54.9375947   1.6750369
  51.6237619  55.1228705   6.2377432  52.3998009  55.6125157   6.5102048
  50.8985753  55.5486759   6.6949301  54.0610178  55.8356324   7.2951372
  54.6554669  55.5952060   6.5844681  54.1336761  55.1163454   7.9224909
  36.2807333  69.6789935   7.6094537  36.1461801  68.9190336   7.0432535
  35.8639396  70.4030835   7.1423326  47.4166296  64.8626858  -3.3828888
  48.1202147  65.0676861  -2.7671232  46.6928945  65.4303620  -3.1179804
  48.2464107  60.6136720   2.7373383  48.1899308  61.0705271   1.8981015
  48.7992449  59.8527404   2.5596225  52.0568913  56.4026452   3.5623502
  51.8005847  56.0023087   4.3931710  51.4321781  57.1170245   3.4373641
  56.3681251  59.1422525   6.0694793  55.8080808  59.2115714   6.8426356
  55.7624754  58.9663509   5.3494290  39.4376459  70.5759252   7.8212980
  39.3208843  71.5204684   7.7191670  38.6168906  70.2732813   8.2098779
  49.3252994  65.3009388  -1.3330428  50.1598598  64.8690586  -1.5152953
  49.1637337  65.1291401  -0.4053533  48.9798886  61.8041501   0.0325912
  48.9247690  61.6385772  -0.9085644  48.3544941  62.5117534   0.1888101
  33.7691401  57.0409565  13.8587334  34.4150265  56.5308519  14.3474559
  33.5608552  57.7778247  14.4330759  46.2944793  64.1090413  19.3579475
  47.1635953  64.2831065  18.9966109  45.8151545  64.9284830  19.2355204
  40.4630973  71.2287514  11.0368908  41.3658220  71.2611124  11.3535403
  40.2368344  70.2987965  11.0515244  42.2184575  69.9818500   7.6978987
  41.2680206  69.9820362   7.5843359  42.5217062  69.2351235   7.1815021
  46.1047131  47.8992387   3.8657167  45.3379527  47.3450873   4.0113849
  46.5157836  47.9714255   4.7271319  38.1088892  54.1877182  17.9562348
  38.9720354  53.8313987  18.1665673  37.5354303  53.8491077  18.6437752
  57.9537269  75.8179039   8.7624749  58.5915679  75.6985786   8.0588089
  57.8358112  76.7659883   8.8212701  54.7626975  75.7706467   8.6986274
  54.4245487  75.6547532   7.8106809  55.6316743  75.3697632   8.6787280
  50.6213791  77.6241943   4.6883165  50.0578656  77.5331880   3.9199453
  50.5066186  76.8041848   5.1685657  55.2446758  76.9241319  14.6572479
  55.2335399  76.5294117  13.7852983  55.4067398  76.1907391  15.2506251
  48.1678223  79.1193135   7.5267385  48.9599515  78.7783959   7.1113685
  48.4074873  79.2288110   8.4469539  56.2013350  81.2912911  -0.0002370
  55.5501329  81.8766991  -0.3868356  56.9957712  81.8219106   0.0592667
  50.1268977  78.3802048   0.3984764  50.8999853  77.8331035   0.2597640
  50.4794376  79.2446297   0.6099225  51.9654019  79.7078430  13.6051663
  51.6743885  80.6124061  13.4898330  52.6011004  79.7494958  14.3195733
  52.8910226  77.0855279  10.1953023  53.4873798  76.8611301   9.4809986
  52.9485198  76.3440024  10.7978471  52.4635255  74.5394714  -1.9696786
  52.7160775  74.0176235  -2.7313323  51.5259814  74.3760860  -1.8670102
  57.5078537  73.5430493   5.8377957  58.2941627  73.1249916   5.4868374
  57.7717242  74.4476585   6.0059606  57.6788615  78.9803343   0.5366614
  57.0434448  79.0537969   1.2487519  57.3486021  79.5696942  -0.1414307
  62.9086965  73.4805726   6.7410936  63.6412137  72.9104943   6.9748765
  62.1526320  73.0927326   7.1817441  52.1831543  76.4422820   0.2327589
  52.0667801  75.7667724   0.9008673  52.2933803  75.9555194  -0.5840258
  54.5263084  75.9032967   3.9374278  54.1621292  75.3763588   4.6487200
  55.3830200  75.5131436   3.7640764  60.4312385  67.1927300  11.2005544
  60.0995710  68.0622711  10.9766759  59.8357998  66.8763584  11.8799575
  54.1668571  70.9322867  -1.0664373  54.3342974  71.8003103  -0.6993902
  53.9765740  71.0950149  -1.9903084  56.9243904  79.3939846  10.6001457
  56.6244628  80.2964885  10.4917264  56.5794964  79.1272029  11.4522610
  50.3756386  75.8453643   6.6338161  49.4506882  75.7129857   6.8415853
  50.6240799  76.6247862   7.1308104  60.3241048  71.9122386   8.2798894
  59.4157926  71.8437794   7.9857655  60.2728644  72.3894331   9.1080720
  54.1457792  73.3880524  -0.0817706  54.0257417  73.8337575   0.7567774
  53.4510381  73.7365842  -0.6404168  47.7365197  75.4886916   7.4681951
  47.8657578  75.7421395   8.3821362  47.0562648  76.0814624   7.1486606
  51.9064684  86.1584166   3.5672425  51.8288714  87.1091991   3.6460905
  51.3026328  85.8130039   4.2247351  54.3981914  73.3312032  16.2233792
  53.6215248  73.8905952  16.2136656  55.0372477  73.8168815  16.7448662
  62.1902695  70.1138824  10.0576768  61.5477075  70.4071358   9.4116563
  61.6857623  69.9991745  10.8629965  59.8442858  73.8601998   0.7462628
  60.7560714  74.0929384   0.5710325  59.3352505  74.4439042   0.1837706
  52.6528286  76.1397485  15.7851759  53.3942971  76.6782529  15.5086582
  51.9465272  76.7663774  15.9423310  58.1283626  78.2826625  14.3823920
  58.5366982  77.8409036  13.6378553  57.4060887  77.7079253  14.6358113
  54.4814696  73.2199232  11.7557477  55.3275891  73.6438646  11.8992126
  54.4213334  72.5632857  12.4496040  58.4512441  78.8427816   8.1376209
  57.8221303  79.0073530   7.4352277  58.0638103  79.2569426   8.9087173
  62.3301673  79.7782254   5.4920573  61.6452711  80.1581155   4.9417606
  62.4145522  80.3877581   6.2252521  57.6314141  70.8803601  13.4138651
  57.3875073  71.6345661  12.8772926  57.9074072  71.2588948  14.2485898
  59.5852604  77.4242213  12.0915916  59.7969499  78.0673973  11.4150297
  59.5382352  76.5904530  11.6237846  57.1878833  70.0360034   8.9952488
  56.3263312  70.3341287   9.2869226  57.2141268  70.2530432   8.0633521
  54.0040402  78.5802224   5.4026294  54.4678748  78.8589927   4.6130917
  53.7397201  77.6785669   5.2199385  50.8964484  78.1273706   8.3406057
  51.4665841  78.5560974   7.7023542  51.4872595  77.8456290   9.0390243
  52.9409289  74.7025377   2.2115859  53.6433332  75.1546420   2.6789786
  52.6089917  74.0609195   2.8395752  51.3889650  73.2937133  16.5867069
  50.7588311  73.9753414  16.8202465  51.2825738  73.1820215  15.6420207
  46.6834623  72.9608929   7.5132993  45.8933676  73.2166458   7.0373103
  47.1745870  73.7757267   7.6185033  60.6998432  80.3014168  10.2638274
  61.5215876  79.8994356   9.9820955  60.6960835  80.1982403  11.2154389
  48.6349368  73.3253508   4.4716470  47.8380531  73.4372203   4.9899965
  48.4074960  73.6640161   3.6057360  54.4655036  79.8498212  12.4198984
  54.5299468  80.3118619  13.2557156  53.7565959  79.2195577  12.5481294
  44.9672325  73.2139420   9.9447984  45.2180364  74.0986430  10.2105560
  45.5031874  73.0344021   9.1723075  68.7904425  76.6452917   6.6123245
  68.0368134  76.0760315   6.4567250  68.9251966  76.6115581   7.5593880
  54.1803053  81.5166319   2.2877964  54.0448728  82.3617855   2.7162812
  54.7212866  81.7185597   1.5243898  50.6670393  67.5957899  18.9492320
  50.2737338  67.0424098  19.6239964  51.4836533  67.9068477  19.3398837
  47.6332451  79.0341757   2.8605890  48.1456971  79.8285007   3.0111454
  48.2855163  78.3368048   2.7939491  49.4427335  82.1507513   4.9428643
  49.6193964  83.0725478   4.7549627  50.2384169  81.8365933   5.3723023
  53.5838354  69.0115778  16.5412576  54.3248067  69.6122931  16.4617039
  53.8156277  68.2693416  15.9830619  48.7279692  74.1972145  14.8190806
  48.6133207  73.2957403  15.1197905  47.8724210  74.4435842  14.4675623
  55.8071530  82.1389886  16.4178307  55.3635384  81.3526264  16.0999211
  56.4688743  82.3269036  15.7522197  50.5658651  83.6685687  10.9438985
  51.1166076  83.5402751  10.1715979  49.7270127  83.9680576  10.5933878
  57.9052768  82.4192686  14.4459708  57.8871243  83.2401567  13.9539977
  58.8272688  82.2946761  14.6709849  54.3625822  79.9336815  15.2883216
  54.8954159  79.1725103  15.0582524  53.8339903  79.6410467  16.0307371
  57.5295517  65.0396881  10.8176858  57.1859786  65.9298523  10.7415969
  57.8974479  64.8498539   9.9546443  45.5981367  77.3630411   3.6365460
  46.4356589  77.7727420   3.4199168  45.7759635  76.4229854   3.6065654
  57.4945799  75.0305492  -0.6750707  56.9792423  75.8010097  -0.4362320
  57.2223108  74.3570628  -0.0517645  55.0792910  69.8755193   4.3834531
  54.2234507  69.4862043   4.2040170  55.4919862  69.9547154   3.5234317
  56.6092057  67.4101536   8.7826091  56.1056853  67.3731671   7.9693896
  56.9022664  68.3194279   8.8422748  52.8534943  67.4940266   7.7892273
  53.7187940  67.2983075   7.4298162  52.9212452  67.2650618   8.7161630
  62.4680074  77.7837847   1.2602467  61.6909516  77.4449006   0.8157629
  63.1471555  77.7890470   0.5857432  57.2832103  72.9032584   1.1509074
  56.9782238  73.2178733   2.0019217  58.2362545  72.9814004   1.1936407
  55.7278534  79.0622808   2.8002028  55.1999896  78.3275567   2.4875266
  55.2266037  79.8397484   2.5541997  60.7071381  77.2571828   7.9169075
  60.0495055  77.9471089   8.0049203  61.5111780  77.6468260   8.2603061
  50.4597262  69.7242474   5.1608640  51.0341014  69.5017655   4.4281833
  51.0468245  69.7931168   5.9137241  59.5176839  75.6116201   5.9673016
  60.0308721  76.2446193   6.4694726  60.1678063  75.0117396   5.6016376
  50.7866849  71.7546935  -0.8195475  49.9504161  72.0921621  -0.4986200
  50.6471619  71.6195915  -1.7568338  52.7619930  66.5983723   3.8883709
  52.1084342  66.2832740   3.2640324  52.7200404  65.9759463   4.6143532
  53.8731135  76.8803018  -4.1962999  52.9658196  76.6492271  -3.9971850
  54.3702167  76.0840637  -4.0089017  55.9957670  73.0865656   8.2131357
  55.0780232  73.3080603   8.0553045  56.4117814  73.1611967   7.3543064
  56.7792718  74.4857072   3.3434037  57.5264537  74.9978469   3.0341159
  57.0484307  74.1641125   4.2038431  55.0519368  76.9815613   0.3260991
  54.1430587  76.6974646   0.4233461  55.0814452  77.4014691  -0.5335702
  60.2838636  80.5922202   4.0952159  59.8300963  79.7513112   4.1517349
  59.6532602  81.2283601   4.4326939  59.2271555  71.5214188   5.3252826
  58.4894312  71.0091574   5.6563069  59.4798329  71.0814570   4.5136103
  58.7271575  82.4298699   5.0301977  59.0194549  82.9903756   4.3114343
  59.2370195  82.7227260   5.7855136  59.3283182  64.2990440   5.9194596
  59.6342059  63.4387804   5.6320511  60.0535787  64.8908060   5.7193590
  45.6207538  74.7021127   4.3076194  45.4231938  74.1090488   3.5827260
  45.0654202  74.3973337   5.0252132  53.6004262  74.5944233   6.4270787
  53.6552872  73.6418070   6.3513263  52.7895464  74.7503672   6.9112085
  54.7495456  78.5224356  -2.3350930  54.3114886  77.8060215  -2.7945293
  55.4905897  78.7500471  -2.8965839  51.5396622  73.2121293   4.1861166
  50.7264488  73.5115464   4.5926358  52.0355616  72.8176982   4.9035648
  53.6905200  83.2079050   6.1195430  53.6481379  83.4339896   5.1903962
  54.6067899  82.9742425   6.2681231  57.1370834  73.6763118  13.0176059
  57.4920221  73.9034591  13.8770525  57.7842965  74.0081494  12.3953315
  62.8668571  76.7981553   3.7225388  62.7286469  76.9883149   2.7946578
  62.5104789  77.5600936   4.1793440  51.0310697  70.7839649   9.8022401
  51.6710076  70.6428408   9.1045364  50.1988227  70.4974162   9.4261003
  62.8937950  78.8658080   8.7336660  63.3274457  78.7733369   9.5819714
  63.6069531  78.8415581   8.0956676  51.8071001  80.0842079   5.9157393
  52.6011599  79.5892399   5.7139968  51.0962693  79.5559942   5.5525099
  56.6265845  82.4660175  10.2669761  56.6802867  83.0351111  11.0347477
  55.7580627  82.6362060   9.9023798  48.1153764  74.2285161   1.9917146
  47.1851352  74.1669616   2.2087108  48.2111236  73.7061113   1.1953787
  48.0339313  70.7539974   4.5795387  48.2946131  71.6685307   4.4704548
  48.8556486  70.2864416   4.7292000  49.5064239  72.1677731  11.7494212
  50.1787292  71.9595093  11.1006861  48.6794025  71.9699817  11.3099444
  63.7553500  78.9081781  11.2669545  63.9489390  79.8127592  11.5128820
  63.6554118  78.4489200  12.1008130  55.4089811  68.7939672  13.7659873
  54.7617726  69.4929621  13.6724349  56.1790826  69.2275816  14.1336121
  58.8168609  79.0588524  16.8410426  58.6654115  78.8299075  15.9240510
  58.8073288  80.0159125  16.8541771  55.5853945  76.6320437  11.8256692
  56.5146005  76.7831596  11.6525660  55.1644975  76.7204457  10.9705339
  54.3842277  80.6571101   9.5955230  54.2453362  80.2889885  10.4681168
  53.5956873  81.1718740   9.4239188  54.9790429  85.7580197   0.9380767
  55.1542184  85.2868241   1.7526389  54.2923217  86.3845964   1.1662027
  55.9347492  80.0352704   6.9844068  55.5997324  79.9953474   7.8801718
  55.4351438  79.3697420   6.5114478  49.9091736  75.4420334  12.5096649
  49.7711534  74.7100573  13.1108188  50.8196659  75.3529234  12.2280837
  58.8706684  77.3808738  -2.7418872  58.2535854  76.6555566  -2.8385820
  58.4023172  78.1418098  -3.0851798  52.5374036  75.1540293  11.9980329
  53.2473655  74.5133485  11.9566947  52.4943345  75.4053188  12.9206509
  60.5260815  82.0907646  14.9186908  60.4673361  81.4066866  14.2517491
  60.9280334  82.8326636  14.4667534  51.2502970  72.1405511  13.8175968
  50.7140327  71.6896249  14.4697564  50.6619679  72.2751420  13.0746432
  49.5451514  88.9069560   7.7120627  49.7848112  89.5388084   8.3899645
  48.7020710  88.5557600   7.9985986  50.6605229  71.5994162  -3.6197568
  49.7834696  71.4782963  -3.9835322  51.1362982  70.8080241  -3.8718680
  60.5278222  80.0547230  13.1500888  59.6405001  79.7173152  13.2727286
  61.0976774  79.3230262  13.3869653  42.1807370  76.3871322   6.4743939
  42.8678409  76.0733052   5.8864954  42.0255498  77.2912687   6.2011190
  46.9842092  71.2761519  10.9028963  46.9000280  70.6687188  10.1679373
  46.1624798  71.7670537  10.9038459  54.0579376  84.7148683  10.1162131
  53.9849547  85.5203654  10.6281435  53.6156769  84.9140648   9.2910152
  53.8469155  83.9520453   3.6264952  53.0636677  84.4942133   3.7203177
  54.5461901  84.4694432   4.0259193  57.1565806  69.7615082   6.2699158
  57.6534505  69.0085044   5.9500228  56.3852787  69.7979399   5.7042367
  65.0095563  75.4655448   7.9117449  64.9985439  76.3480163   7.5411382
  64.1412942  75.1126998   7.7171986  56.5178059  84.6135517  12.2720289
  57.2306032  85.2482981  12.1996191  56.0268088  84.7099383  11.4560291
  58.2395586  78.5186769   3.8437581  57.3051865  78.6388232   3.6742285
  58.4172255  77.6159236   3.5797591  53.7400774  71.9032465   5.9970842
  53.3698562  71.3503505   6.6851748  54.2359867  71.2990599   5.4445842
  61.6268138  74.3604089   4.3787615  62.0928590  75.1932080   4.3047918
  62.0775638  73.8949070   5.0832874  51.5689973  82.3629960  13.0925860
  52.2699432  82.9966443  13.2455254  51.0985088  82.7044692  12.3321500
  59.6944369  80.7047910   1.3773767  59.9704213  80.5904504   2.2867641
  58.8248867  80.3065395   1.3385940  59.5984800  66.7284676   8.4178517
  58.6847880  66.9588902   8.5860724  60.0277902  66.8123120   9.2692549
  59.3691259  74.9174568  10.9178411  58.7162709  75.1650475  10.2630863
  59.7471639  74.1038706  10.5840888  56.3298433  84.9534261   5.0206581
  56.5120827  84.1355917   5.4834333  57.1531419  85.1701953   4.5831471
  56.6640598  83.8802446   2.2821629  57.1928365  83.3694900   1.6691791
  56.9268818  83.5644976   3.1467162  55.4178832  75.6594379  17.4044448
  54.7419469  75.5588508  18.0746823  56.2406466  75.5033592  17.8680445
  47.1657691  81.8966315  10.0256963  47.7511128  81.1510003  10.1584867
  46.9682529  82.2070272  10.9093627  50.0196346  84.9317563   5.0419405
  49.3506721  85.4163690   4.5583445  49.8809216  85.1786783   5.9562784
  41.7575346  74.4671915   8.7461406  41.7959445  73.9335506   9.5398524
  41.2515639  73.9407121   8.1272383  54.1601615  86.9661306  11.6402064
  54.7119923  87.1292928  12.4051149  54.5007808  87.5565744  10.9682089
  49.1366108  69.3136456  12.2423948  49.2007434  70.1751287  11.8301346
  49.0733228  68.7010458  11.5096307  48.6118381  71.3859588  15.8896983
  49.2390419  71.0036666  16.5034507  47.7546299  71.1673790  16.2552675
  59.0112489  81.7922564  17.4950718  59.5552393  82.4052522  17.0005673
  58.4299334  82.3502142  18.0117731  45.3883923  73.1936018   1.8215337
  45.6837364  72.2846696   1.7682391  44.4871959  73.1723757   1.4996340
  57.2970002  84.9143282   8.6265746  57.1721141  84.1133021   8.1176691
  57.9549093  85.4089475   8.1379716  48.9178170  71.2692014   7.8042886
  48.1964756  71.8827982   7.6650359  49.7071426  71.8049779   7.7259532
  59.3604910  82.7152302  10.2545296  58.4135246  82.5957653  10.1823623
  59.7087684  81.8274800  10.3371557  51.7204484  68.6046441  14.0783538
  52.2438886  68.8508737  14.8409847  51.5016817  69.4366475  13.6586675
  47.1171765  70.8750115   1.9454663  46.7884471  69.9947494   1.7629769
  47.4711136  70.8197784   2.8331052  56.3651344  82.5105018   6.4549648
  56.2176306  81.5821725   6.6357218  57.1904837  82.5325109   5.9706723
  50.2313588  71.1623085   2.3130140  50.5709661  71.6909006   1.5908749
  50.6785708  71.5003491   3.0888707  59.9685466  83.3333577   7.5414521
  60.8932013  83.1276438   7.4038972  59.8000769  83.0849978   8.4503862
  52.9257029  69.5460136  11.7633208  52.5853849  68.7467949  12.1653888
  52.2196035  69.8461847  11.1910042  53.5773501  66.6309448  10.2160531
  54.3999570  66.1569926  10.0939422  53.8211564  67.4099932  10.7159218
  52.2181735  69.6597707   0.5123433  52.9390098  70.0378959   0.0087150
  51.5947039  70.3786583   0.6158411  56.3612858  70.3642856   1.4481765
  56.5776472  71.2467493   1.1470594  55.8806925  69.9729069   0.7187407
  51.1012079  73.3228569   8.0252510  50.9556660  73.6368872   8.9176791
  50.6237283  73.9413469   7.4723409  52.9608462  70.3131117   8.0733400
  52.9470031  69.4172210   7.7365697  53.6780890  70.3201781   8.7071686
  54.8134593  70.7468457  10.1186527  54.5552371  71.6685528  10.1170857
  54.2819633  70.3498892  10.8086991  59.7580782  83.8519244   2.8976612
  59.9317659  83.2865667   2.1450465  60.2509673  84.6520139   2.7156102
  45.5757742  75.8633913  10.9640171  45.0311210  76.6393721  11.0960445
  46.4537091  76.2104718  10.8059293  52.3645358  69.1945497   3.3420970
  52.4861269  68.2662143   3.5411857  52.0747401  69.2084183   2.4299285
  55.2336549  66.8800407   6.4787690  55.2558245  66.9439741   5.5239669
  55.6504608  66.0404916   6.6728196  65.6120173  76.6155667   4.5166912
  66.0551319  75.8662992   4.1186035  64.7346683  76.6065803   4.1340644
  46.3623763  74.9903809  13.8570328  45.6205499  75.1386445  14.4434958
  46.0416508  75.2512075  12.9937077  62.6447377  80.6185714   1.5260841
  63.1698701  80.9572987   0.8010161  62.5569730  79.6832729   1.3423976
  54.3067426  84.5319788  13.6550718  54.6154553  84.2868934  14.5273418
  55.1042908  84.7366426  13.1669588  54.3288038  86.6857697   5.8856095
  53.8893028  86.1934076   6.5788951  55.0796155  86.1430665   5.6448170
  46.8080377  82.8769238   5.8880723  47.6338397  82.5773010   5.5079366
  46.4574429  82.1076861   6.3370511  51.7761910  82.2295706   7.9578396
  51.1541920  81.5666411   7.6580624  52.4466777  82.2556838   7.2752044
  45.0088982  80.7955565   6.8469656  44.1720890  80.3677739   6.6653658
  44.9812628  80.9888008   7.7840447  51.8486438  70.7077494  17.5510902
  51.8974593  71.5839617  17.1688672  52.3908952  70.1654887  16.9782546
  62.3341283  81.2518618  16.8312039  61.5436827  81.2342757  16.2916539
  62.0974638  81.7906911  17.5861076  62.4539158  78.1011084  14.1444768
  62.5037163  77.9361091  15.0860291  62.3453082  77.2338343  13.7542649
  51.3375417  80.7799630   1.4336857  51.4863538  81.4635094   0.7803530
  52.1441861  80.7604720   1.9486313  59.7442921  74.0842012  15.4604075
  60.6452784  73.9448477  15.1688072  59.8190895  74.2496467  16.4002252
  54.0785726  71.4608867  14.3057261  53.2089036  71.7542433  14.0339849
  54.3145207  72.0449312  15.0264525  63.9557355  80.5208026  14.3886789
  63.6642164  80.8838006  15.2250250  63.3429487  79.8075034  14.2100122
  65.1553038  78.0860905   6.9089360  65.9899929  78.5250709   7.0726920
  65.2912166  77.6099559   6.0897605  62.2044544  75.6440640  12.8566847
  62.6798665  75.8368287  12.0485699  61.2810109  75.6999826  12.6110231
  49.0928050  76.8064807   2.4397926  48.8474092  75.9027137   2.6378136
  49.2623965  76.8081958   1.4977404  56.7824760  67.6788484  11.8222681
  57.3006704  68.4149511  11.4969170  56.4279893  67.9852477  12.6569440
  48.3623698  72.5393165  -0.0615913  47.6692943  72.6137520  -0.7175877
  48.1175450  71.7753509   0.4605604  57.0337354  64.0988766   7.3423578
  57.3139108  63.4311955   7.9684004  57.8187961  64.2917862   6.8298242
  54.8370823  83.2747760  -1.0951396  54.2644790  83.8937947  -1.5480924
  55.4103616  83.8247122  -0.5611474  60.9046213  72.5206400  11.0895153
  61.8563635  72.6204498  11.1107377  60.7349663  71.7284669  11.5993237
  58.9260592  69.6061983  11.2754554  58.3310524  69.8866996  10.5801043
  58.6410289  70.0955884  12.0471295  63.3834290  75.7412520  10.2037453
  63.3510610  74.8028521  10.3897137  63.9934914  75.8196557   9.4703278
  55.2217621  74.6108573  -3.7535343  56.1676726  74.4814781  -3.6846925
  54.8431866  73.8723235  -3.2765915  63.5328779  72.5323563  10.2495736
  63.0167827  71.7482020  10.0625665  64.4168727  72.2042280  10.4142255
  61.1939506  66.2764579   6.2091549  60.9964327  65.9679667   7.0934881
  61.8039211  67.0026218   6.3389478  69.2010840  76.8028527   9.3443489
  69.9314229  76.5413815   9.9051193  68.5917786  76.0657249   9.3845557
  67.2826137  74.9436389   9.9417941  66.5559301  74.8092354   9.3334432
  66.8673424  75.2513218  10.7474659  55.1056314  78.6626319  17.7065314
  56.0259323  78.8404918  17.9005360  55.0705897  77.7182364  17.5545013
  53.4060538  72.5358549  -3.8180458  52.4991994  72.2391662  -3.7417744
  53.6836519  72.2388367  -4.6846172  44.3238479  73.8564913   6.6318588
  44.0041263  73.0030221   6.3392962  43.7771907  74.0713491   7.3876556
  48.1018386  76.5727354  10.3488095  48.3204396  77.5044462  10.3676129
  48.5144160  76.2135328  11.1342899  55.0222604  67.0795439   2.3363783
  54.2123332  66.7342524   2.7119029  55.7107021  66.7702983   2.9251395
  56.9513152  66.1573486   3.9588080  57.5044191  66.5768939   4.6178103
  57.1883239  65.2309234   4.0011036  52.9746252  72.1460559  19.7390844
  52.8742979  73.0954916  19.6702935  52.7567794  71.8178798  18.8666914
  52.1759323  69.3945485  -3.6768479  53.0378487  69.7200383  -3.4172662
  52.3609667  68.6076980  -4.1895413  44.1926739  77.4767824   8.6011710
  43.4990210  77.0621777   8.0881664  44.9399730  77.5188361   8.0045129
  60.3291959  68.2674011   3.4666744  59.7490629  68.9258815   3.0844797
  60.0627892  67.4451356   3.0554162  58.7795526  67.6679069   5.6688064
  59.2795304  67.7795603   4.8602383  59.4231134  67.3640122   6.3088873
  52.8377522  75.5757698  18.5555905  52.3544603  76.3758058  18.7619794
  52.9238461  75.5865643  17.6023349  46.1063481  77.4086078   6.4777725
  46.0834169  77.5073765   5.5259608  46.4164118  78.2551229   6.7994891
  48.7650859  79.4662233  10.5924339  49.7194113  79.4346175  10.5254271
  48.5663383  79.0052857  11.4074565  49.3550241  78.0363349  13.1595137
  50.1743130  78.5307428  13.1829974  49.6287049  77.1195317  13.1312704
  59.1116837  70.4274101   2.5223092  58.2242693  70.7123752   2.3043287
  59.5270827  70.2667865   1.6750369  62.4631374  70.4520622   6.2377432
  63.2391764  70.9417075   6.5102048  61.7379508  70.8778677   6.6949301
  64.9003932  71.1648242   7.2951372  65.4948423  70.9243978   6.5844681
  64.9730516  70.4455372   7.9224909  47.1201088  85.0081853   7.6094537
  46.9855556  84.2482253   7.0432535  46.7033150  85.7322752   7.1423326
  59.0857861  75.9428637   2.7373383  59.0293063  76.3997189   1.8981015
  59.6386204  75.1819322   2.5596225  62.8962667  71.7318369   3.5623502
  62.6399601  71.3315005   4.3931710  62.2715535  72.4462163   3.4373641
  67.2075005  74.4714442   6.0694793  66.6474563  74.5407632   6.8426356
  66.6018508  74.2955427   5.3494290  50.2770214  85.9051170   7.8212980
  50.1602598  86.8496602   7.7191670  49.4562660  85.6024731   8.2098779
  60.1646748  80.6301305  -1.3330428  60.9992352  80.1982504  -1.5152953
  60.0031091  80.4583319  -0.4053533  59.8192641  77.1333419   0.0325912
  59.7641444  76.9677690  -0.9085644  59.1938696  77.8409451   0.1888101
  44.6085156  72.3701483  13.8587334  45.2544019  71.8600437  14.3474559
  44.4002307  73.1070165  14.4330759  57.1338548  79.4382330  19.3579475
  58.0029707  79.6122983  18.9966109  56.6545299  80.2576747  19.2355204
  53.1288766  66.6341528  -0.3888770  53.1167436  67.5783367  -0.2320499
  54.0212188  66.4511673  -0.6829309  51.3024728  86.5579431  11.0368908
  52.2051975  86.5903042  11.3535403  51.0762098  85.6279882  11.0515244
  53.0578330  85.3110418   7.6978987  52.1073961  85.3112280   7.5843359
  53.3610816  84.5643153   7.1815021  56.9440885  63.2284304   3.8657167
  56.1773281  62.6742791   4.0113849  57.3551590  63.3006173   4.7271319
  48.9482647  69.5169100  17.9562348  49.8114108  69.1605905  18.1665673
  48.3748057  69.1782995  18.6437752  65.6020730  91.0998384   8.6986274
  65.2639241  90.9839449   7.8106809  66.4710498  90.6989550   8.6787280
  66.0840513  92.2533236  14.6572479  66.0729153  91.8586034  13.7852983
  66.2461152  91.5199309  15.2506251  59.0071977  94.4485052   7.5267385
  59.7993269  94.1075877   7.1113685  59.2468628  94.5580028   8.4469539
  62.8047774  95.0370348  13.6051663  62.5137640  95.9415979  13.4898330
  63.4404758  95.0786876  14.3195733  63.7303981  92.4147197  10.1953023
  64.3267553  92.1903219   9.4809986  63.7878952  91.6731942  10.7978471
  71.2706139  82.5219218  11.2005544  70.9389464  83.3914628  10.9766759
  70.6751753  82.2055502  11.8799575  67.7637659  94.7231764  10.6001457
  67.4638382  95.6256802  10.4917264  67.4188718  94.4563947  11.4522610
  61.2150140  91.1745560   6.6338161  60.2900637  91.0421774   6.8415853
  61.4634554  91.9539780   7.1308104  71.1634803  87.2414304   8.2798894
  70.2551680  87.1729712   7.9857655  71.1122399  87.7186249   9.1080720
  58.5758951  90.8178834   7.4681951  58.7051333  91.0713313   8.3821362
  57.8956403  91.4106542   7.1486606  65.2375669  88.6603949  16.2233792
  64.4609003  89.2197869  16.2136656  65.8766232  89.1460732  16.7448662
  73.0296449  85.4430742  10.0576768  72.3870829  85.7363275   9.4116563
  72.5251378  85.3283662  10.8629965  63.4922041  91.4689403  15.7851759
  64.2336725  92.0074447  15.5086582  62.7859026  92.0955691  15.9423310
  68.9677380  93.6118543  14.3823920  69.3760736  93.1700954  13.6378553
  68.2454642  93.0371171  14.6358113  65.3208451  88.5491150  11.7557477
  66.1669646  88.9730563  11.8992126  65.2607088  87.8924774  12.4496040
  68.4707896  86.2095518  13.4138651  68.2268828  86.9637579  12.8772926
  68.7467826  86.5880866  14.2485898  70.4246359  92.7534131  12.0915916
  70.6363254  93.3965891  11.4150297  70.3776107  91.9196447  11.6237846
  68.0272588  85.3651951   8.9952488  67.1657067  85.6633205   9.2869226
  68.0535022  85.5822350   8.0633521  61.7358238  93.4565623   8.3406057
  62.3059595  93.8852892   7.7023542  62.3266350  93.1748208   9.0390243
  62.2283405  88.6229051  16.5867069  61.5982065  89.3045332  16.8202465
  62.1219492  88.5112132  15.6420207  57.5228377  88.2900847   7.5132993
  56.7327431  88.5458375   7.0373103  58.0139624  89.1049185   7.6185033
  59.4743122  88.6545426   4.4716470  58.6774286  88.7664120   4.9899965
  59.2468715  88.9932078   3.6057360  65.3048790  95.1790129  12.4198984
  65.3693223  95.6410537  13.2557156  64.5959714  94.5487494  12.5481294
  55.8066080  88.5431337   9.9447984  56.0574118  89.4278347  10.2105560
  56.3425628  88.3635939   9.1723075  61.5064147  82.9249817  18.9492320
  61.1131093  82.3716015  19.6239964  62.3230288  83.2360395  19.3398837
  64.4232108  84.3407696  16.5412576  65.1641822  84.9414849  16.4617039
  64.6550031  83.5985334  15.9830619  59.5673446  89.5264063  14.8190806
  59.4526961  88.6249320  15.1197905  58.7117964  89.7727760  14.4675623
  66.6465284  97.4681803  16.4178307  66.2029138  96.6818182  16.0999211
  67.3082498  97.6560954  15.7522197  61.4052405  98.9977605  10.9438985
  61.9559830  98.8694668  10.1715979  60.5663881  99.2972494  10.5933878
  68.7446522  97.7484603  14.4459708  68.7264997  98.5693484  13.9539977
  69.6666442  97.6238678  14.6709849  65.2019576  95.2628733  15.2883216
  65.7347913  94.5017021  15.0582524  64.6733657  94.9702385  16.0307371
  68.3689271  80.3688799  10.8176858  68.0253541  81.2590440  10.7415969
  68.7368234  80.1790456   9.9546443  67.4485812  82.7393454   8.7826091
  66.9450607  82.7023589   7.9693896  67.7416418  83.6486197   8.8422748
  63.6928698  82.8232184   7.7892273  64.5581694  82.6274992   7.4298162
  63.7606206  82.5942535   8.7161630  61.2991017  85.0534392   5.1608640
  61.8734768  84.8309573   4.4281833  61.8861999  85.1223086   5.9137241
  63.6013684  81.9275640   3.8883709  62.9478097  81.6124658   3.2640324
  63.5594158  81.3051381   4.6143532  66.8351425  88.4157574   8.2131357
  65.9173986  88.6372521   8.0553045  67.2511568  88.4903884   7.3543064
  70.1676937  79.6282358   5.9194596  70.4735814  78.7679721   5.6320511
  70.8929542  80.2199978   5.7193590  56.4601293  90.0313044   4.3076194
  56.2625693  89.4382405   3.5827260  55.9047957  89.7265255   5.0252132
  64.4398017  89.9236151   6.4270787  64.4946626  88.9709987   6.3513263
  63.6289219  90.0795590   6.9112085  62.3790377  88.5413211   4.1861166
  61.5658242  88.8407381   4.5926358  62.8749371  88.1468899   4.9035648
  67.9764588  89.0055035  13.0176059  68.3313976  89.2326508  13.8770525
  68.6236719  89.3373412  12.3953315  61.8704451  86.1131566   9.8022401
  62.5103831  85.9720325   9.1045364  61.0381982  85.8266080   9.4261003
  58.8733068  86.0831891   4.5795387  59.1339885  86.9977224   4.4704548
  59.6950240  85.6156334   4.7292000  60.3457993  87.4969648  11.7494212
  61.0181046  87.2887011  11.1006861  59.5187780  87.2991734  11.3099444
  66.2483565  84.1231589  13.7659873  65.6011480  84.8221539  13.6724349
  67.0184580  84.5567733  14.1336121  69.6562363  94.3880441  16.8410426
  69.5047869  94.1590993  15.9240510  69.6467042  95.3451043  16.8541771
  66.4247699  91.9612354  11.8256692  67.3539759  92.1123514  11.6525660
  66.0038729  92.0496375  10.9705339  65.2236031  95.9863019   9.5955230
  65.0847117  95.6181803  10.4681168  64.4350627  96.5010658   9.4239188
  60.7485490  90.7712251  12.5096649  60.6105288  90.0392490  13.1108188
  61.6590414  90.6821151  12.2280837  63.3767791  90.4832211  11.9980329
  64.0867410  89.8425403  11.9566947  63.3337099  90.7345106  12.9206509
  71.3654570  97.4199564  14.9186908  71.3067116  96.7358784  14.2517491
  71.7674088  98.1618554  14.4667534  62.0896725  87.4697429  13.8175968
  61.5534082  87.0188167  14.4697564  61.5013433  87.6043337  13.0746432
  71.3671977  95.3839148  13.1500888  70.4798756  95.0465070  13.2727286
  71.9370528  94.6522179  13.3869653  53.0201124  91.7163240   6.4743939
  53.7072164  91.4024970   5.8864954  52.8649253  92.6204604   6.2011190
  57.8235846  86.6053436  10.9028963  57.7394035  85.9979106  10.1679373
  57.0018553  87.0962455  10.9038459  67.9959560  85.0907000   6.2699158
  68.4928260  84.3376962   5.9500228  67.2246542  85.1271316   5.7042367
  64.5794529  87.2324383   5.9970842  64.2092316  86.6795423   6.6851748
  65.0753621  86.6282516   5.4445842  62.4083727  97.6921878  13.0925860
  63.1093187  98.3258361  13.2455254  61.9378842  98.0336609  12.3321500
  70.4378555  82.0576593   8.4178517  69.5241635  82.2880820   8.5860724
  70.8671656  82.1415037   9.2692549  70.2085013  90.2466485  10.9178411
  69.5556464  90.4942393  10.2630863  70.5865393  89.4330623  10.5840888
  66.2572586  90.9886296  17.4044448  65.5813223  90.8880426  18.0746823
  67.0800220  90.8325510  17.8680445  58.0051445  97.2258233  10.0256963
  58.5904882  96.4801921  10.1584867  57.8076284  97.5362190  10.9093627
  52.5969100  89.7963833   8.7461406  52.6353200  89.2627424   9.5398524
  52.0909393  89.2699039   8.1272383  59.9759862  84.6428374  12.2423948
  60.0401189  85.5043204  11.8301346  59.9126983  84.0302375  11.5096307
  59.4512135  86.7151506  15.8896983  60.0784174  86.3328583  16.5034507
  58.5940054  86.4965708  16.2552675  69.8506244  97.1214481  17.4950718
  70.3946148  97.7344440  17.0005673  69.2693088  97.6794060  18.0117731
  56.2277678  88.5227935   1.8215337  56.5231119  87.6138614   1.7682391
  55.3265714  88.5015675   1.4996340  59.7571925  86.5983932   7.8042886
  59.0358511  87.2119900   7.6650359  60.5465181  87.1341697   7.7259532
  62.5598238  83.9338358  14.0783538  63.0832640  84.1800655  14.8409847
  62.3410572  84.7658393  13.6586675  57.9565519  86.2042033   1.9454663
  57.6278225  85.3239412   1.7629769  58.3104890  86.1489702   2.8331052
  63.7650783  84.8752053  11.7633208  63.4247604  84.0759866  12.1653888
  63.0589790  85.1753764  11.1910042  64.4167255  81.9601366  10.2160531
  65.2393324  81.4861844  10.0939422  64.6605319  82.7391850  10.7159218
  61.9405834  88.6520486   8.0252510  61.7950415  88.9660790   8.9176791
  61.4631038  89.2705387   7.4723409  63.8002217  85.6423034   8.0733400
  63.7863786  84.7464128   7.7365697  64.5174645  85.6493698   8.7071686
  65.6528348  86.0760375  10.1186527  65.3946125  86.9977445  10.1170857
  65.1213388  85.6790809  10.8086991  56.4151496  91.1925831  10.9640171
  55.8704964  91.9685639  11.0960445  57.2930846  91.5396635  10.8059293
  63.2039113  84.5237415   3.3420970  63.3255024  83.5954061   3.5411857
  62.9141155  84.5376101   2.4299285  66.0730303  82.2092325   6.4787690
  66.0952000  82.2731658   5.5239669  66.4898362  81.3696834   6.6728196
  57.2017518  90.3195727  13.8570328  56.4599254  90.4678362  14.4434958
  56.8810262  90.5803993  12.9937077  65.1461181  99.8611705  13.6550718
  65.4548307  99.6160852  14.5273418  65.9436663 100.0658344  13.1669588
  55.8482737  96.1247482   6.8469656  55.0114645  95.6969657   6.6653658
  55.8206382  96.3179926   7.7840447  62.6880192  86.0369412  17.5510902
  62.7368348  86.9131535  17.1688672  63.2302706  85.4946805  16.9782546
  73.1735038  96.5810535  16.8312039  72.3830582  96.5634674  16.2916539
  72.9368393  97.1198829  17.5861076  73.2932913  93.4303002  14.1444768
  73.3430918  93.2653009  15.0860291  73.1846836  92.5630261  13.7542649
  70.5836675  89.4133930  15.4604075  71.4846538  89.2740395  15.1688072
  70.6584650  89.5788385  16.4002252  64.9179481  86.7900785  14.3057261
  64.0482790  87.0834351  14.0339849  65.1538961  87.3741230  15.0264525
  74.7951110  95.8499943  14.3886789  74.5035918  96.2129924  15.2250250
  74.1823241  95.1366952  14.2100122  73.0438298  90.9732558  12.8566847
  73.5192420  91.1660204  12.0485699  72.1203863  91.0291744  12.6110231
  67.6218515  83.0080401  11.8222681  68.1400458  83.7441428  11.4969170
  67.2673647  83.3144395  12.6569440  67.8731109  79.4280684   7.3423578
  68.1532862  78.7603873   7.9684004  68.6581716  79.6209780   6.8298242
  71.7439967  87.8498318  11.0895153  72.6957390  87.9496416  11.1107377
  71.5743417  87.0576587  11.5993237  69.7654347  84.9353901  11.2754554
  69.1704279  85.2158914  10.5801043  69.4804043  85.4247802  12.0471295
  74.3722533  87.8615481  10.2495736  73.8561582  87.0773938  10.0625665
  75.2562482  87.5334198  10.4142255  72.0333260  81.6056497   6.2091549
  71.8358081  81.2971585   7.0934881  72.6432966  82.3318136   6.3389478
  65.9450068  93.9918237  17.7065314  66.8653078  94.1696836  17.9005360
  65.9099651  93.0474282  17.5545013  55.1632233  89.1856830   6.6318588
  54.8435018  88.3322139   6.3392962  54.6165661  89.4005409   7.3876556
  58.9412141  91.9019271  10.3488095  59.1598151  92.8336379  10.3676129
  59.3537915  91.5427246  11.1342899  65.8616359  82.4087357   2.3363783
  65.0517087  82.0634442   2.7119029  66.5500776  82.0994900   2.9251395
  67.7906907  81.4865404   3.9588080  68.3437945  81.9060857   4.6178103
  68.0276993  80.5601152   4.0011036  63.8140006  87.4752477  19.7390844
  63.7136733  88.4246834  19.6702935  63.5961548  87.1470716  18.8666914
  55.0320493  92.8059742   8.6011710  54.3383965  92.3913695   8.0881664
  55.7793484  92.8480278   8.0045129  69.6189280  82.9970986   5.6688064
  70.1189059  83.1087521   4.8602383  70.2624888  82.6932039   6.3088873
  63.6771276  90.9049616  18.5555905  63.1938358  91.7049976  18.7619794
  63.7632215  90.9157561  17.6023349  56.9457236  92.7377996   6.4777725
  56.9227924  92.8365683   5.5259608  57.2557872  93.5843146   6.7994891
  59.6044614  94.7954151  10.5924339  60.5587867  94.7638093  10.5254271
  59.4057137  94.3344774  11.4074565  60.1943996  93.3655267  13.1595137
  61.0136885  93.8599345  13.1829974  60.4680803  92.4487235  13.1312704
  55.4478910  87.6993401  13.8587334  56.0937774  87.1892355  14.3474559
  55.2396061  88.4362082  14.4330759  67.9732302  94.7674248  19.3579475
  68.8423462  94.9414900  18.9966109  67.4939054  95.5868665  19.2355204
  67.7834640  78.5576222   3.8657167  67.0167036  78.0034709   4.0113849
  68.1945345  78.6298091   4.7271319  59.7876401  84.8461018  17.9562348
  60.6507863  84.4897823  18.1665673  59.2141812  84.5074913  18.6437752
  72.3457902  98.2541734  18.9492320  71.9524847  97.7007933  19.6239964
  73.1624042  98.5652313  19.3398837  75.2625863  99.6699613  16.5412576
  76.0035576 100.2706767  16.4617039  75.4943786  98.9277251  15.9830619
  70.2905889 102.0443424  15.8896983  70.9177928 101.6620501  16.5034507
  69.4333808 101.8257626  16.2552675  73.5273947 101.3661330  17.5510902
  73.5762102 102.2423453  17.1688672  74.0696461 100.8238723  16.9782546
  74.6533761 102.8044395  19.7390844  74.5530487 103.7538752  19.6702935
  74.4355303 102.4762634  18.8666914  66.2872665 103.0285318  13.8587334
  66.9331528 102.5184272  14.3474559  66.0789816 103.7654000  14.4330759
  70.6270156 100.1752935  17.9562348  71.4901617  99.8189740  18.1665673
  70.0535566  99.8366830  18.6437752  48.1718736  43.4692769   4.2196025
  48.7158640  44.0822727   3.7250980  47.5905581  44.0272347   4.7363038
  51.4947530  42.9288823   3.5557346  50.7043074  42.9112961   3.0161845
  51.2580885  43.4677116   4.3106383  46.2944794  41.1152535   6.0824781
  47.1635954  41.2893188   5.7211416  45.8151546  41.9346952   5.9600511
  57.9537270  52.8241161  -4.5129944  58.5915680  52.7047909  -5.2166604
  57.8358113  53.7722005  -4.4541992  54.7626977  52.7768589  -4.5768419
  54.4245488  52.6609654  -5.4647885  55.6316745  52.3759754  -4.5967413
  55.2446759  53.9303441   1.3817786  55.2335400  53.5356239   0.5098290
  55.4067399  53.1969514   1.9751558  51.9654021  56.7140553   0.3296970
  51.6743887  57.6186184   0.2143636  52.6011005  56.7557081   1.0441040
  52.8910227  54.0917401  -3.0801670  53.4873800  53.8673424  -3.7944707
  52.9485199  53.3502147  -2.4776222  62.9086966  50.4867848  -6.5343758
  63.6412138  49.9167065  -6.3005928  62.1526322  50.0989449  -6.0937252
  60.4312386  44.1989422  -2.0749149  60.0995711  45.0684833  -2.2987934
  59.8358000  43.8825706  -1.3955119  56.9243906  56.4001968  -2.6753236
  56.6244629  57.3027007  -2.7837429  56.5794965  56.1334152  -1.8232083
  60.3241050  48.9184509  -4.9955799  59.4157927  48.8499917  -5.2897038
  60.2728645  49.3956454  -4.1673973  51.9064686  63.1646289  -9.7082269
  51.8288715  64.1154114  -9.6293788  51.3026329  62.8192161  -9.0507342
  54.3981915  50.3374154   2.9479098  53.6215249  50.8968074   2.9381963
  55.0372478  50.8230937   3.4693968  62.1902696  47.1200947  -3.2177925
  61.5477076  47.4133480  -3.8638130  61.6857624  47.0053867  -2.4124728
  52.6528288  53.1459608   2.5097065  53.3942972  53.6844652   2.2331889
  51.9465273  53.7725896   2.6668617  58.1283627  55.2888748   1.1069227
  58.5366983  54.8471159   0.3623859  57.4060889  54.7141376   1.3603420
  54.4814697  50.2261355  -1.5197216  55.3275892  50.6500768  -1.3762567
  54.4213335  49.5694979  -0.8258653  58.4512442  55.8489939  -5.1378484
  57.8221304  56.0135653  -5.8402416  58.0638104  56.2631548  -4.3667520
  62.3301674  56.7844377  -7.7834121  61.6452712  57.1643278  -8.3337087
  62.4145523  57.3939703  -7.0502173  57.6314143  47.8865723   0.1383957
  57.3875074  48.6407784  -0.3981767  57.9074073  48.2651071   0.9731204
  59.5852605  54.4304336  -1.1838777  59.7969501  55.0736095  -1.8604396
  59.5382354  53.5966652  -1.6516847  50.8964485  55.1335828  -4.9348636
  51.4665842  55.5623097  -5.5731151  51.4872597  54.8518413  -4.2364450
  51.3889651  50.2999256   3.3112375  50.7588312  50.9815537   3.5447772
  51.2825739  50.1882337   2.3665514  60.6998433  57.3076291  -3.0116420
  61.5215877  56.9056478  -3.2933738  60.6960836  57.2044525  -2.0600304
  54.4655037  56.8560334  -0.8555709  54.5299469  57.3180741  -0.0197537
  53.7565961  56.2257699  -0.7273399  68.7904426  53.6515039  -6.6631448
  68.0368135  53.0822438  -6.8187444  68.9251968  53.6177704  -5.7160814
  50.6670394  44.6020022   5.6737626  50.2737340  44.0486220   6.3485271
  51.4836534  44.9130600   6.0644144  53.5838355  46.0177901   3.2657883
  54.3248068  46.6185054   3.1862345  53.8156278  45.2755538   2.7075925
  48.7279693  51.2034268   1.5436113  48.6133208  50.3019525   1.8443212
  47.8724211  51.4497965   1.1920929  55.8071531  59.1452008   3.1423613
  55.3635385  58.3588387   2.8244518  56.4688744  59.3331159   2.4767504
  50.5658652  60.6747810  -2.3315708  51.1166077  60.5464873  -3.1038714
  49.7270128  60.9742699  -2.6820815  57.9052769  59.4254808   1.1705015
  57.8871244  60.2463689   0.6785284  58.8272689  59.3008883   1.3955156
  54.3625823  56.9398938   2.0128523  54.8954160  56.1787226   1.7827831
  53.8339904  56.6472589   2.7552677  60.7071382  54.2633951  -5.3585619
  60.0495056  54.9533212  -5.2705490  61.5111781  54.6530383  -5.0151632
  59.5176841  52.6178323  -7.3081677  60.0308722  53.2508315  -6.8059967
  60.1678064  52.0179519  -7.6738317  60.2838637  57.5984325  -9.1802534
  59.8300964  56.7575235  -9.1237344  59.6532603  58.2345723  -8.8427754
  58.7271576  59.4360821  -8.2452716  59.0194550  59.9965879  -8.9640351
  59.2370197  59.7289382  -7.4899557  53.6905201  60.2141173  -7.1559263
  53.6481380  60.4402019  -8.0850731  54.6067900  59.9804547  -7.0073462
  57.1370835  50.6825240  -0.2578634  57.4920223  50.9096713   0.6015832
  57.7842966  51.0143617  -0.8801379  62.8937952  55.8720203  -4.5418033
  63.3274458  55.7795492  -3.6934979  63.6069532  55.8477703  -5.1798017
  56.6265846  59.4722297  -3.0084933  56.6802869  60.0413233  -2.2407217
  55.7580628  59.6424182  -3.3730896  63.7553501  55.9143904  -2.0085148
  63.9489391  56.8189714  -1.7625873  63.6554119  55.4551323  -1.1746563
  55.4089812  45.8001794   0.4905179  54.7617727  46.4991744   0.3969656
  56.1790827  46.2337938   0.8581428  58.8168610  56.0650646   3.5655733
  58.6654116  55.8361198   2.6485816  58.8073289  57.0221248   3.5787078
  55.5853946  53.6382559  -1.4498001  56.5146006  53.7893719  -1.6229034
  55.1644976  53.7266580  -2.3049354  54.3842278  57.6633224  -3.6799463
  54.2453364  57.2952008  -2.8073525  53.5956874  58.1780863  -3.8515505
  55.9347493  57.0414826  -6.2910625  55.5997326  57.0015596  -5.3952976
  55.4351439  56.3759542  -6.7640215  49.9091737  52.4482456  -0.7658044
  49.7711535  51.7162695  -0.1646505  50.8196661  52.3591356  -1.0473857
  52.5374038  52.1602416  -1.2774365  53.2473656  51.5195608  -1.3187746
  52.4943346  52.4115310  -0.3548184  60.5260816  59.0969769   1.6432215
  60.4673363  58.4128989   0.9762798  60.9280335  59.8388759   1.1912841
  51.2502972  49.1467633   0.5421275  50.7140329  48.6958372   1.1942871
  50.6619680  49.2813542  -0.2008261  49.5451515  65.9131683  -5.5634067
  49.7848113  66.5450207  -4.8855048  48.7020712  65.5619723  -5.2768707
  60.5278224  57.0609353  -0.1253806  59.6405002  56.7235275  -0.0027407
  61.0976775  56.3292384   0.1114960  54.0579377  61.7210805  -3.1592563
  53.9849549  62.5265777  -2.6473258  53.6156770  61.9202771  -3.9844541
  53.8469157  60.9582575  -9.6489741  53.0636679  61.5004255  -9.5551517
  54.5461902  61.4756555  -9.2495500  65.0095564  52.4717570  -5.3637244
  64.9985440  53.3542286  -5.7343311  64.1412944  52.1189121  -5.5582707
  56.5178061  61.6197639  -1.0034404  57.2306033  62.2545104  -1.0758502
  56.0268089  61.7161505  -1.8194402  51.5689974  59.3692083  -0.1828833
  52.2699434  60.0028566  -0.0299439  51.0985089  59.7106814  -0.9433194
  59.3691260  51.9236690  -2.3576283  58.7162710  52.1712598  -3.0123830
  59.7471640  51.1100828  -2.6913805  56.3298434  61.9596383  -8.2548112
  56.5120829  61.1418039  -7.7920360  57.1531420  62.1764076  -8.6923222
  56.6640599  60.8864568 -10.9933064  57.1928366  60.3757023 -11.6062902
  56.9268819  60.5707099 -10.1287531  55.4178833  52.6656501   4.1289754
  54.7419470  52.5650631   4.7992130  56.2406467  52.5095715   4.5925752
  47.1657692  58.9028438  -3.2497730  47.7511129  58.1572126  -3.1169826
  46.9682531  59.2132394  -2.3661067  50.0196347  61.9379685  -8.2335288
  49.3506723  62.4225813  -8.7171248  49.8809217  62.1848906  -7.3191910
  54.1601616  63.9723429  -1.6352630  54.7119924  64.1355050  -0.8703544
  54.5007809  64.5627867  -2.3072605  48.6118382  48.3921711   2.6142289
  49.2390421  48.0098788   3.2279814  47.7546301  48.1735913   2.9797982
  59.0112490  58.7984686   4.2196025  59.5552394  59.4114644   3.7250980
  58.4299335  59.3564265   4.7363038  57.2970003  61.9205404  -4.6488948
  57.1721143  61.1195144  -5.1578002  57.9549094  62.4151598  -5.1374978
  59.3604912  59.7214424  -3.0209397  58.4135247  59.6019775  -3.0931071
  59.7087685  58.8336922  -2.9383136  51.7204485  45.6108563   0.8028844
  52.2438887  45.8570860   1.5655154  51.5016818  46.4428598   0.3831982
  56.3651345  59.5167141  -6.8205045  56.2176307  58.5883848  -6.6397475
  57.1904838  59.5387231  -7.3047970  59.9685467  60.3395699  -5.7340172
  60.8932014  60.1338561  -5.8715721  59.8000770  60.0912100  -4.8250831
  54.8134594  47.7530580  -3.1568166  54.5552372  48.6747650  -3.1583836
  54.2819635  47.3561014  -2.4667702  59.7580783  60.8581367 -10.3778081
  59.9317661  60.2927789 -11.1304229  60.2509674  61.6582262 -10.5598591
  45.5757743  52.8696036  -2.3114522  45.0311211  53.6455844  -2.1794248
  46.4537093  53.2166840  -2.4695401  65.6120174  53.6217790  -8.7587781
  66.0551320  52.8725115  -9.1568658  64.7346684  53.6127926  -9.1414049
  46.3623765  51.9965932   0.5815635  45.6205501  52.1448567   1.1680265
  46.0416509  52.2574198  -0.2817616  54.3067427  61.5381910   0.3796025
  54.6154554  61.2931057   1.2518724  55.1042909  61.7428549  -0.1085105
  54.3288039  63.6919820  -7.3898599  53.8893030  63.1996199  -6.6965742
  55.0796156  63.1492788  -7.6306524  51.7761912  59.2357829  -5.3176297
  51.1541921  58.5728534  -5.6174069  52.4466778  59.2618961  -6.0002649
  51.8486439  47.7139617   4.2756209  51.8974594  48.5901740   3.8933979
  52.3908953  47.1717010   3.7027852  62.3341285  58.2580740   3.5557346
  61.5436828  58.2404879   3.0161845  62.0974639  58.7969034   4.3106383
  62.4539160  55.1073207   0.8690075  62.5037165  54.9423214   1.8105597
  62.3453083  54.2400466   0.4787955  59.7442922  51.0904135   2.1849381
  60.6452785  50.9510600   1.8933379  59.8190897  51.2558590   3.1247559
  54.0785727  48.4670989   1.0302568  53.2089037  48.7604555   0.7585156
  54.3145208  49.0511434   1.7509831  63.9557357  57.5270148   1.1132096
  63.6642165  57.8900129   1.9495557  63.3429488  56.8137156   0.9345428
  65.1553039  55.0923028  -6.3665334  65.9899930  55.5312832  -6.2027773
  65.2912168  54.6161681  -7.1857088  62.2044545  52.6502763  -0.4187846
  62.6798666  52.8430409  -1.2268995  61.2810110  52.7061949  -0.6644462
  56.7824761  44.6850606  -1.4532012  57.3006705  45.4211633  -1.7785523
  56.4279894  44.9914600  -0.6185253  60.9046214  49.5268523  -2.1859540
  61.8563637  49.6266621  -2.1647316  60.7349664  48.7346791  -1.6761456
  58.9260593  46.6124106  -2.0000139  58.3310525  46.8929119  -2.6953651
  58.6410290  47.1018007  -1.2283398  63.3834292  52.7474643  -3.0717241
  63.3510612  51.8090643  -2.8857557  63.9934915  52.8258679  -3.8051416
  63.5328780  49.5385686  -3.0258957  63.0167829  48.7544143  -3.2129029
  64.4168729  49.2104403  -2.8612438  69.2010841  53.8090649  -3.9311204
  69.9314230  53.5475938  -3.3703501  68.5917787  53.0719371  -3.8909136
  67.2826139  51.9498512  -3.3336753  66.5559302  51.8154477  -3.9420261
  66.8673425  52.2575341  -2.5280035  55.1056315  55.6688442   4.4310620
  56.0259324  55.8467041   4.6250667  55.0705898  54.7244487   4.2790320
  48.1018388  53.5789476  -2.9266598  48.3204397  54.5106584  -2.9078565
  48.5144161  53.2197451  -2.1411795  52.9746253  49.1522682   6.4636150
  52.8742980  50.1017039   6.3948242  52.7567795  48.8240921   5.5912221
  52.8377523  52.5819821   5.2801212  52.3544605  53.3820181   5.4865101
  52.9238462  52.5927766   4.3268656  48.7650860  56.4724356  -2.6830354
  49.7194114  56.4408298  -2.7500423  48.5663384  56.0114979  -1.8680128
  49.3550243  55.0425472  -0.1159556  50.1743132  55.5369550  -0.0924719
  49.6287050  54.1257440  -0.1441989  64.9003933  48.1710364  -5.9803321
  65.4948424  47.9306100  -6.6910013  64.9730517  47.4517495  -5.3529785
  47.1201089  62.0143975  -5.6660156  46.9855557  61.2544376  -6.2322158
  46.7033151  62.7384875  -6.1331367  67.2075006  51.4776565  -7.2059900
  66.6474564  51.5469754  -6.4328338  66.6018510  51.3017550  -7.9260404
  50.2770215  62.9113292  -5.4541714  50.1602599  63.8558725  -5.5563023
  49.4562661  62.6086854  -5.0655914  44.6085157  49.3763606   0.5832641
  45.2544020  48.8662560   1.0719866  44.4002308  50.1132287   1.1576066
  57.1338549  56.4444453   6.0824781  58.0029709  56.6185105   5.7211416
  56.6545300  57.2638870   5.9600511  51.3024729  63.5641554  -2.2385785
  52.2051976  63.5965164  -1.9219290  51.0762099  62.6342005  -2.2239449
  53.0578331  62.3172541  -5.5775707  52.1073962  62.3174402  -5.6911334
  53.3610817  61.5705275  -6.0939672  48.9482648  46.5231223   4.6807655
  49.8114109  46.1668027   4.8910979  48.3748058  46.1845117   5.3683059
  65.6020731  68.1060507  -4.5768419  65.2639243  67.9901572  -5.4647885
  66.4710499  67.7051672  -4.5967413  66.0840514  69.2595359   1.3817786
  66.0729155  68.8648157   0.5098290  66.2461153  68.5261431   1.9751558
  59.0071979  71.4547175  -5.7487308  59.7993271  71.1138000  -6.1641009
  59.2468629  71.5642150  -4.8285155  62.8047775  72.0432471   0.3296970
  62.5137641  72.9478101   0.2143636  63.4404759  72.0848998   1.0441040
  63.7303982  69.4209319  -3.0801670  64.3267554  69.1965342  -3.7944707
  63.7878954  68.6794065  -2.4776222  71.2706141  59.5281340  -2.0749149
  70.9389465  60.3976751  -2.2987934  70.6751754  59.2117624  -1.3955119
  67.7637660  71.7293886  -2.6753236  67.4638383  72.6318925  -2.7837429
  67.4188720  71.4626069  -1.8232083  61.2150142  68.1807683  -6.6416532
  60.2900638  68.0483897  -6.4338840  61.4634555  68.9601902  -6.1446589
  71.1634804  64.2476426  -4.9955799  70.2551681  64.1791835  -5.2897038
  71.1122400  64.7248371  -4.1673973  58.5758953  67.8240957  -5.8072743
  58.7051334  68.0775435  -4.8933331  57.8956404  68.4168665  -6.1268088
  65.2375670  65.6666072   2.9479098  64.4609004  66.2259992   2.9381963
  65.8766233  66.1522855   3.4693968  73.0296450  62.4492865  -3.2177925
  72.3870831  62.7425398  -3.8638130  72.5251379  62.3345785  -2.4124728
  63.4922042  68.4751525   2.5097065  64.2336726  69.0136569   2.2331889
  62.7859028  69.1017814   2.6668617  68.9677382  70.6180666   1.1069227
  69.3760738  70.1763076   0.3623859  68.2454643  70.0433293   1.3603420
  65.3208452  65.5553272  -1.5197216  66.1669647  65.9792686  -1.3762567
  65.2607089  64.8986897  -0.8258653  68.4707897  63.2157641   0.1383957
  68.2268829  63.9699701  -0.3981767  68.7467828  63.5942988   0.9731204
  70.4246360  69.7596253  -1.1838777  70.6363255  70.4028013  -1.8604396
  70.3776108  68.9258570  -1.6516847  68.0272589  62.3714074  -4.2802205
  67.1657068  62.6695327  -3.9885467  68.0535023  62.5884473  -5.2121172
  61.7358239  70.4627746  -4.9348636  62.3059596  70.8915014  -5.5731151
  62.3266351  70.1810331  -4.2364450  62.2283406  65.6291173   3.3112375
  61.5982066  66.3107454   3.5447772  62.1219494  65.5174255   2.3665514
  57.5228378  65.2962969  -5.7621701  56.7327432  65.5520498  -6.2381590
  58.0139626  66.1111307  -5.6569660  59.4743124  65.6607549  -8.8038224
  58.6774287  65.7726243  -8.2854728  59.2468716  65.9994201  -9.6697333
  65.3048791  72.1852252  -0.8555709  65.3693224  72.6472659  -0.0197537
  64.5959715  71.5549617  -0.7273399  55.8066081  65.5493460  -3.3306710
  56.0574120  66.4340470  -3.0649134  56.3425630  65.3698061  -4.1031618
  61.5064149  59.9311939   5.6737626  61.1131094  59.3778138   6.3485271
  62.3230289  60.2422518   6.0644144  64.4232110  61.3469818   3.2657883
  65.1641823  61.9476972   3.1862345  64.6550032  60.6047456   2.7075925
  59.5673448  66.5326186   1.5436113  59.4526963  65.6311443   1.8443212
  58.7117965  66.7789882   1.1920929  66.6465285  74.4743926   3.1423613
  66.2029139  73.6880304   2.8244518  67.3082499  74.6623076   2.4767504
  61.4052406  76.0039728  -2.3315708  61.9559832  75.8756791  -3.1038714
  60.5663882  76.3034617  -2.6820815  68.7446523  74.7546726   1.1705015
  68.7264999  75.5755607   0.6785284  69.6666443  74.6300801   1.3955156
  65.2019578  72.2690855   2.0128523  65.7347914  71.5079144   1.7827831
  64.6733659  71.9764507   2.7552677  68.3689272  57.3750921  -2.4577835
  68.0253542  58.2652563  -2.5338725  68.7368235  57.1852579  -3.3208250
  67.4485813  59.7455576  -4.4928602  66.9450608  59.7085712  -5.3060797
  67.7416420  60.6548319  -4.4331945  63.6928699  59.8294306  -5.4862420
  64.5581696  59.6337115  -5.8456531  63.7606208  59.6004658  -4.5593064
  61.2991018  62.0596514  -8.1146054  61.8734770  61.8371696  -8.8472861
  61.8862000  62.1285209  -7.3617452  63.6013686  58.9337763  -9.3870984
  62.9478098  58.6186780 -10.0114369  63.5594160  58.3113503  -8.6611161
  66.8351426  65.4219697  -5.0623337  65.9173987  65.6434644  -5.2201648
  67.2511570  65.4966007  -5.9211629  70.1676938  56.6344480  -7.3560098
  70.4735815  55.7741844  -7.6434183  70.8929543  57.2262101  -7.5561104
  56.4601294  67.0375167  -8.9678500  56.2625694  66.4444528  -9.6927433
  55.9047958  66.7327377  -8.2502561  64.4398018  66.9298274  -6.8483907
  64.4946628  65.9772110  -6.9241430  63.6289220  67.0857713  -6.3642608
  62.3790378  65.5475333  -9.0893528  61.5658243  65.8469504  -8.6828336
  62.8749372  65.1531022  -8.3719046  67.9764589  66.0117158  -0.2578634
  68.3313977  66.2388631   0.6015832  68.6236721  66.3435535  -0.8801379
  61.8704453  63.1193689  -3.4732293  62.5103832  62.9782448  -4.1709330
  61.0381983  62.8328202  -3.8493691  58.8733069  63.0894014  -8.6959306
  59.1339886  64.0039347  -8.8050146  59.6950241  62.6218456  -8.5462693
  60.3457994  64.5031771  -1.5260481  61.0181048  64.2949133  -2.1747833
  59.5187781  64.3053857  -1.9655249  66.2483566  61.1293712   0.4905179
  65.6011481  61.8283662   0.3969656  67.0184582  61.5629856   0.8581428
  69.6562364  71.3942564   3.5655733  69.5047871  71.1653116   2.6485816
  69.6467044  72.3513165   3.5787078  66.4247701  68.9674477  -1.4498001
  67.3539761  69.1185636  -1.6229034  66.0038731  69.0558498  -2.3049354
  65.2236032  72.9925141  -3.6799463  65.0847118  72.6243926  -2.8073525
  64.4350629  73.5072781  -3.8515505  60.7485492  67.7774374  -0.7658044
  60.6105290  67.0454613  -0.1646505  61.6590415  67.6883274  -1.0473857
  63.3767792  67.4894333  -1.2774365  64.0867411  66.8487525  -1.3187746
  63.3337100  67.7407228  -0.3548184  71.3654571  74.4261687   1.6432215
  71.3067117  73.7420907   0.9762798  71.7674089  75.1680677   1.1912841
  62.0896726  64.4759551   0.5421275  61.5534083  64.0250290   1.1942871
  61.5013435  64.6105460  -0.2008261  71.3671978  72.3901271  -0.1253806
  70.4798757  72.0527192  -0.0027407  71.9370529  71.6584302   0.1114960
  53.0201125  68.7225362  -6.8010754  53.7072165  68.4087092  -7.3889739
  52.8649254  69.6266727  -7.0743503  57.8235847  63.6115559  -2.3725731
  57.7394036  63.0041228  -3.1075321  57.0018554  64.1024577  -2.3716234
  67.9959561  62.0969122  -7.0055536  68.4928261  61.3439085  -7.3254465
  67.2246543  62.1333439  -7.5712326  64.5794530  64.2386505  -7.2783851
  64.2092318  63.6857546  -6.5902945  65.0753623  63.6344639  -7.8308851
  62.4083729  74.6984000  -0.1828833  63.1093188  75.3320483  -0.0299439
  61.9378844  75.0398732  -0.9433194  70.4378556  59.0638716  -4.8576177
  69.5241636  59.2942943  -4.6893970  70.8671658  59.1477160  -4.0062144
  70.2085015  67.2528608  -2.3576283  69.5556465  67.5004515  -3.0123830
  70.5865395  66.4392746  -2.6913805  66.2572588  67.9948419   4.1289754
  65.5813225  67.8942548   4.7992130  67.0800222  67.8387633   4.5925752
  58.0051447  74.2320355  -3.2497730  58.5904884  73.4864043  -3.1169826
  57.8076285  74.5424312  -2.3661067  52.5969101  66.8025956  -4.5293287
  52.6353201  66.2689546  -3.7356169  52.0909394  66.2761161  -5.1482310
  59.9759864  61.6490496  -1.0330745  60.0401190  62.5105327  -1.4453347
  59.9126984  61.0364498  -1.7658386  59.4512136  63.7213629   2.6142289
  60.0784175  63.3390706   3.2279814  58.5940055  63.5027831   2.9797982
  69.8506245  74.1276604   4.2196025  70.3946149  74.7406562   3.7250980
  69.2693090  74.6856182   4.7363038  56.2277679  65.5290058 -11.4539356
  56.5231120  64.6200736 -11.5072302  55.3265715  65.5077797 -11.7758354
  59.7571926  63.6046054  -5.4711807  59.0358512  64.2182022  -5.6104334
  60.5465182  64.1403819  -5.5495161  62.5598240  60.9400481   0.8028844
  63.0832641  61.1862777   1.5655154  62.3410573  61.7720516   0.3831982
  57.9565521  63.2104155 -11.3300031  57.6278227  62.3301534 -11.5124925
  58.3104891  63.1551824 -10.4423641  63.7650785  61.8814176  -1.5121485
  63.4247605  61.0821989  -1.1100805  63.0589791  62.1815887  -2.0844652
  64.4167256  58.9663488  -3.0594162  65.2393326  58.4923967  -3.1815272
  64.6605320  59.7453972  -2.5595476  61.9405835  65.6582609  -5.2502183
  61.7950416  65.9722912  -4.3577902  61.4631039  66.2767509  -5.8031285
  63.8002218  62.6485157  -5.2021294  63.7863787  61.7526250  -5.5388996
  64.5174646  62.6555821  -4.5683008  65.6528349  63.0822497  -3.1568166
  65.3946127  64.0039568  -3.1583836  65.1213389  62.6852932  -2.4667702
  56.4151497  68.1987953  -2.3114522  55.8704965  68.9747761  -2.1794248
  57.2930847  68.5458758  -2.4695401  63.2039114  61.5299537  -9.9333724
  63.3255025  60.6016184  -9.7342836  62.9141156  61.5438223 -10.8455408
  66.0730304  59.2154448  -6.7967004  66.0952001  59.2793781  -7.7515024
  66.4898363  58.3758956  -6.6026498  57.2017519  67.3257850   0.5815635
  56.4599255  67.4740485   1.1680265  56.8810263  67.5866115  -0.2817616
  65.1461182  76.8673828   0.3796025  65.4548308  76.6222975   1.2518724
  65.9436664  77.0720466  -0.1085105  55.8482738  73.1309605  -6.4285037
  55.0114646  72.7031779  -6.6101036  55.8206383  73.3242048  -5.4914246
  62.6880194  63.0431535   4.2756209  62.7368349  63.9193657   3.8933979
  63.2302708  62.5008928   3.7027852  73.1735039  73.5872658   3.5557346
  72.3830583  73.5696797   3.0161845  72.9368394  74.1260952   4.3106383
  73.2932914  70.4365124   0.8690075  73.3430919  70.2715132   1.8105597
  73.1846838  69.5692383   0.4787955  70.5836677  66.4196052   2.1849381
  71.4846539  66.2802517   1.8933379  70.6584651  66.5850507   3.1247559
  64.9179482  63.7962907   1.0302568  64.0482791  64.0896473   0.7585156
  65.1538962  64.3803352   1.7509831  74.7951111  72.8562066   1.1132096
  74.5035919  73.2192046   1.9495557  74.1823242  72.1429074   0.9345428
  73.0438299  67.9794680  -0.4187846  73.5192421  68.1722327  -1.2268995
  72.1203865  68.0353866  -0.6644462  67.6218516  60.0142524  -1.4532012
  68.1400460  60.7503551  -1.7785523  67.2673649  60.3206517  -0.6185253
  67.8731110  56.4342807  -5.9331115  68.1532864  55.7665996  -5.3070689
  68.6581717  56.6271902  -6.4456452  71.7439968  64.8560441  -2.1859540
  72.6957391  64.9558538  -2.1647316  71.5743419  64.0638709  -1.6761456
  69.7654348  61.9416024  -2.0000139  69.1704280  62.2221036  -2.6953651
  69.4804044  62.4309925  -1.2283398  74.3722535  64.8677604  -3.0258957
  73.8561583  64.0836060  -3.2129029  75.2562483  64.5396320  -2.8612438
  72.0333262  58.6118619  -7.0663145  71.8358083  58.3033707  -6.1819813
  72.6432967  59.3380258  -6.9365215  65.9450069  70.9980359   4.4310620
  66.8653079  71.1758958   4.6250667  65.9099653  70.0536405   4.2790320
  55.1632234  66.1918953  -6.6436105  54.8435019  65.3384261  -6.9361731
  54.6165663  66.4067531  -5.8878138  58.9412142  68.9081394  -2.9266598
  59.1598152  69.8398502  -2.9078565  59.3537916  68.5489368  -2.1411795
  65.8616360  59.4149479 -10.9390910  65.0517088  59.0696564 -10.5635664
  66.5500777  59.1057023 -10.3503299  67.7906908  58.4927526  -9.3166613
  68.3437947  58.9122980  -8.6576590  68.0276994  57.5663274  -9.2743657
  63.8140007  64.4814600   6.4636150  63.7136734  65.4308957   6.3948242
  63.5961549  64.1532839   5.5912221  55.0320494  69.8121864  -4.6742983
  54.3383966  69.3975817  -5.1873029  55.7793485  69.8542401  -5.2709565
  69.6189282  60.0033109  -7.6066629  70.1189060  60.1149644  -8.4152310
  70.2624890  59.6994162  -6.9665820  63.6771277  67.9111739   5.2801212
  63.1938359  68.7112099   5.4865101  63.7632216  67.9219683   4.3268656
  56.9457237  69.7440118  -6.7976969  56.9227925  69.8427806  -7.7495085
  57.2557874  70.5905269  -6.4759802  59.6044615  71.8016273  -2.6830354
  60.5587868  71.7700216  -2.7500423  59.4057138  71.3406897  -1.8680128
  60.1943997  70.3717389  -0.1159556  61.0136886  70.8661468  -0.0924719
  60.4680805  69.4549357  -0.1441989  55.4478911  64.7055523   0.5832641
  56.0937775  64.1954477   1.0719866  55.2396062  65.4424205   1.1576066
  67.9732303  71.7736371   6.0824781  68.8423463  71.9477023   5.7211416
  67.4939055  72.5930788   5.9600511  67.7834641  55.5638344  -9.4097526
  67.0167037  55.0096831  -9.2640844  68.1945346  55.6360213  -8.5483375
  59.7876402  61.8523140   4.6807655  60.6507864  61.4959945   4.8910979
  59.2141813  61.5137035   5.3683059  72.3457903  75.2603857   5.6737626
  71.9524849  74.7070056   6.3485271  73.1624043  75.5714435   6.0644144
  75.2625864  76.6761736   3.2657883  76.0035577  77.2768889   3.1862345
  75.4943787  75.9339374   2.7075925  70.2905891  79.0505546   2.6142289
  70.9177930  78.6682624   3.2279814  69.4333810  78.8319748   2.9797982
  73.5273948  78.3723452   4.2756209  73.5762103  79.2485575   3.8933979
  74.0696462  77.8300845   3.7027852  74.6533762  79.8106517   6.4636150
  74.5530489  80.7600874   6.3948242  74.4355304  79.4824756   5.5912221
  66.2872666  80.0347441   0.5832641  66.9331529  79.5246395   1.0719866
  66.0789817  80.7716123   1.1576066  70.6270157  77.1815058   4.6807655
  71.4901618  76.8251863   4.8910979  70.0535567  76.8428953   5.3683059
  69.8506246  51.1338726  -9.0558669  70.3946150  51.7468685  -9.5503714
  69.2693091  51.6918305  -8.5391656  73.1735040  50.5934781  -9.7197347
  72.3830584  50.5758919 -10.2592848  72.9368395  51.1323074  -8.9648311
  67.9732305  48.7798493  -7.1929912  68.8423464  48.9539146  -7.5543277
  67.4939056  49.5992910  -7.3154183  72.3457904  52.2665980  -7.6017067
  71.9524850  51.7132178  -6.9269423  73.1624045  52.5776558  -7.2110549
  75.2625865  53.6823859 -10.0096810  76.0035579  54.2831012 -10.0892348
  75.4943788  52.9401496 -10.5678768  70.2905892  56.0567669 -10.6612404
  70.9177931  55.6744746 -10.0474880  69.4333811  55.8381871 -10.2956712
  73.5273949  55.3785575  -8.9998484  73.5762105  56.2547698  -9.3820715
  74.0696463  54.8362968  -9.5726841  74.6533763  56.8168640  -6.8118543
  74.5530490  57.7662997  -6.8806452  74.4355305  56.4886879  -7.6842473
  66.2872667  57.0409563 -12.6922053  66.9331531  56.5308517 -12.2034828
  66.0789818  57.7778245 -12.1178628  70.6270158  54.1877181  -8.5947039
  71.4901620  53.8313985  -8.3843714  70.0535569  53.8491075  -7.9071634
   3.7541894  99.6390796  46.4387322   3.0005603  99.0698194  46.2831327
   3.8889436  99.6053461  47.3857957   4.1648309  99.7966406  49.1707566
   4.8951698  99.5351694  49.7315270   3.5555255  99.0595128  49.2109634
   2.2463607  97.9374269  49.7682018   1.5196770  97.8030234  49.1598509
   1.8310893  98.2451097  50.5738736   2.1712474  97.4652322  45.8958870
   1.6112032  97.5345511  46.6690433   1.5655978  97.2893306  45.1758367
   5.1314406 102.6220237  45.7458673   5.4373283 101.7617601  45.4584588
   5.8567011 103.2137857  45.5457667   2.8368578 102.4218563  47.1687655
   3.1170332 101.7541752  47.7948081   3.6219185 102.6147659  46.6562319
   6.9970730 104.5994376  46.0355626   6.7995551 104.2909464  46.9198958
   7.6070435 105.3256015  46.1653555   2.7472109 101.5514101  43.6921244
   1.9804505 100.9972588  43.8377926   3.1582814 101.6235970  44.5535396
   3.7541896  76.6452919  33.1632629   3.0005604  76.0760317  33.0076633
   3.8889437  76.6115583  34.1103263   4.1648311  76.8028529  35.8952873
   4.8951699  76.5413817  36.4560576   3.5555256  76.0657251  35.9354941
   2.2463608  74.9436391  36.4927324   1.5196771  74.8092356  35.8843816
   1.8310895  75.2513220  37.2984042   2.1712476  74.4714444  32.6204177
   1.6112034  74.5407634  33.3935739   1.5655979  74.2955429  31.9003673
   3.7568494  91.1470958  35.3134133   4.3946904  91.0277706  34.6097473
   3.6389337  92.0951802  35.3722085   1.0477983  92.2533238  41.2081863
   1.0366624  91.8586036  40.3362367   1.2098623  91.5199311  41.8015635
   3.3109762  88.8722412  32.3887341   4.0972852  88.4541835  32.0377758
   3.5748467  89.7768504  32.5568989   8.7118190  88.8097645  33.2920319
   9.4443362  88.2396862  33.5258149   7.9557545  88.4219246  33.7326825
   6.2343610  82.5219219  37.7514928   5.9026935  83.3914630  37.5276143
   5.6389223  82.2055503  38.4308958   2.7275129  94.7231765  37.1510841
   2.4275853  95.6256804  37.0426648   2.3826189  94.4563949  38.0031994
   6.1272273  87.2414305  34.8308278   5.2189151  87.1729714  34.5367039
   6.0759869  87.7186250  35.6590104   7.9933920  85.4430744  36.6086152
   7.3508300  85.7363277  35.9625947   7.4888848  85.3283664  37.4139349
   5.6474083  89.1893917  27.2972011   6.5591939  89.4221304  27.1219709
   5.1383730  89.7730961  26.7347090   3.9314851  93.6118545  40.9333304
   4.3398207  93.1700955  40.1887936   3.2092113  93.0371172  41.1867497
   4.2543666  94.1719736  34.6885593   3.6252528  94.3365450  33.9861661
   3.8669328  94.5861345  35.4596557   8.1332898  95.1074173  32.0429956
   7.4483936  95.4873075  31.4926990   8.2176747  95.7169500  32.7761904
   3.4345366  86.2095520  39.9648034   3.1906298  86.9637581  39.4282310
   3.7105297  86.5880868  40.7995281   5.3883829  92.7534132  38.6425300
   5.6000724  93.3965892  37.9659681   5.3413577  91.9196449  38.1747230
   2.9910058  85.3651953  35.5461872   2.1294537  85.6633207  35.8378610
   3.0172493  85.5822352  34.6142905   6.5029657  95.6306088  36.8147657
   7.3247101  95.2286275  36.5330339   6.4992060  95.5274322  37.7663773
  14.5935650  91.9744836  33.1632629  13.8399359  91.4052234  33.0076633
  14.7283191  91.9407501  34.1103263   1.6102755  97.4681805  42.9687690
   1.1666609  96.6818184  42.6508595   2.2719968  97.6560956  42.3031581
   3.7083993  97.7484605  40.9969092   3.6902468  98.5693486  40.5049361
   4.6303913  97.6238680  41.2219233   3.3326742  80.3688800  37.3686242
   2.9891011  81.2590442  37.2925352   3.7005704  80.1790458  36.5055827
   2.4123282  82.7393456  35.3335475   1.9088078  82.7023591  34.5203280
   2.7053889  83.6486198  35.3932132   8.2711299  93.1129766  27.8111850
   7.4940741  92.7740926  27.3667012   8.9502780  93.1182389  27.1366815
   3.0863328  88.2324504  27.7018458   2.7813463  88.5470653  28.5528601
   4.0393770  88.3105924  27.7445791   6.5102606  92.5863747  34.4678458
   5.8526280  93.2763009  34.5558587   7.3143005  92.9760179  34.8112445
   5.3208064  90.9408120  32.5182400   5.8339946  91.5738112  33.0204110
   5.9709288  90.3409316  32.1525760   1.7988895  88.4157576  34.7640740
   0.8811457  88.6372523  34.6062429   2.2149039  88.4903886  33.9052448
   2.5823943  89.8148991  29.8943421   3.3295762  90.3270389  29.5850543
   2.8515533  89.4933044  30.7547814   6.0869861  95.9214122  30.6461543
   5.6332188  95.0805032  30.7026733   5.4563827  96.5575520  30.9836323
   5.0302780  86.8506108  31.8762210   4.2925537  86.3383494  32.2072453
   5.2829554  86.4106489  31.0645487   4.5302800  97.7590618  31.5811361
   4.8225774  98.3195675  30.8623726   5.0401420  98.0519179  32.3364520
   5.1314407  79.6282360  32.4703979   5.4373284  78.7679723  32.1829894
   5.8567012  80.2199980  32.2702973   2.9402059  89.0055037  39.5685443
   3.2951446  89.2326510  40.4279909   3.5874190  89.3373414  38.9462698
   8.6699796  92.1273473  30.2734772   8.5317694  92.3175069  29.3455961
   8.3136015  92.8892856  30.7302823   8.6969175  94.1950000  35.2846044
   9.1305682  94.1025289  36.1329098   9.4100756  94.1707500  34.6466060
   2.4297070  97.7952094  36.8179144   2.4834093  98.3643030  37.5856860
   1.5611852  97.9653979  36.4533181   9.5584725  94.2373701  37.8178929
   9.7520615  95.1419511  38.0638204   9.4585343  93.7781120  38.6517514
   1.2121036  84.1231591  40.3169256   0.5648951  84.8221541  40.2233733
   1.9822051  84.5567735  40.6845505   4.6199834  94.3880443  43.3919810
   4.4685340  94.1590995  42.4749893   4.6104513  95.3451045  43.4051155
   1.3885170  91.9612356  38.3766076   2.3177230  92.1123516  38.2035043
   0.9676200  92.0496377  37.5214723   1.7378717  95.3644623  33.5353452
   1.4028550  95.3245393  34.4311101   1.2382663  94.6989339  33.0623862
   6.3292040  97.4199566  41.4696292   6.2704586  96.7358786  40.8026875
   6.7311559  98.1618556  41.0176918   6.3309447  95.3839150  39.7010271
   5.4436226  95.0465072  39.8236670   6.9007999  94.6522181  39.9379037
   2.9597031  85.0907002  32.8208541   3.4565730  84.3376964  32.5009612
   2.1884012  85.1271318  32.2551751  10.8126788  90.7947367  34.4626833
  10.8016664  91.6772083  34.0920766   9.9444167  90.4418918  34.2681370
   2.3209284  99.9427436  38.8229673   3.0337257 100.5774901  38.7505575
   1.8299313 100.0391302  38.0069675   4.0426811  93.8478689  30.3946965
   3.1083090  93.9680151  30.2251669   4.2203480  92.9451156  30.1306975
   7.4299363  89.6896008  30.9296999   7.8959815  90.5224000  30.8557302
   7.8806863  89.2240990  31.6342257   5.4016025  82.0576595  34.9687900
   4.4879105  82.2880822  35.1370107   5.8309127  82.1415039  35.8201933
   5.1722484  90.2466487  37.4687794   4.5193934  90.4942394  36.8140247
   5.5502864  89.4330625  37.1350272   1.2210057  90.9886298  43.9553831
   0.5450694  90.8880427  44.6256207   2.0437691  90.8325512  44.4189829
   4.8143714  97.1214483  44.0460102   5.3583618  97.7344441  43.5515057
   4.2330559  97.6794061  44.5627115   3.1001227 100.2435201  35.1775130
   2.9752367  99.4424941  34.6686075   3.7580318 100.7381394  34.6889099
   5.1636135  98.0444221  36.8054680   4.2166471  97.9249572  36.7333006
   5.5118909  97.1566719  36.8880941   2.1682569  97.8396937  33.0059032
   2.0207531  96.9113645  33.1866602   2.9936062  97.8617028  32.5216107
   5.7716691  98.6625496  34.0923905   6.6963238  98.4568357  33.9548356
   5.6031994  98.4141897  35.0013246   2.1644083  85.6934775  27.9991149
   2.3807697  86.5759413  27.6979977   1.6838150  85.3020988  27.2696791
   1.0367774  82.2092327  33.0297073   1.0589470  82.2731660  32.0749053
   1.4535833  81.3696836  33.2237579  11.4151398  91.9447586  31.0676296
  11.8582544  91.1954912  30.6695419  10.5377908  91.9357723  30.6850028
   8.4478602  95.9477633  28.0770225   8.9729927  96.2864906  27.3519545
   8.3600955  95.0124649  27.8933360   8.1372508  96.5810537  43.3821423
   7.3468052  96.5634676  42.8425922   7.9005863  97.1198831  44.1370460
   8.2570384  93.4303004  40.6954152   8.3068388  93.2653011  41.6369674
   8.1484307  92.5630263  40.3052032   5.5474146  89.4133932  42.0113458
   6.4484009  89.2740396  41.7197456   5.6222120  89.5788386  42.9511636
   9.7588580  95.8499945  40.9396173   9.4673389  96.2129926  41.7759634
   9.1460712  95.1366953  40.7609505  10.9584263  93.4152825  33.4598743
  11.7931154  93.8542629  33.6236304  11.0943391  92.9391478  32.6406989
   8.0075769  90.9732560  39.4076231   8.4829890  91.1660206  38.5995082
   7.0841334  91.0291745  39.1619615   2.5855985  83.0080403  38.3732065
   3.1037929  83.7441430  38.0478554   2.2311118  83.3144397  39.2078824
   2.8368579  79.4280686  33.8932962   3.1170333  78.7603875  34.5193388
   3.6219186  79.6209781  33.3807625   6.7077438  87.8498320  37.6404537
   7.6594860  87.9496417  37.6616761   6.5380888  87.0576588  38.1502621
   4.7291817  84.9353903  37.8263938   4.1341749  85.2158916  37.1310426
   4.4441514  85.4247804  38.5980679   9.1865515  91.0704439  36.7546836
   9.1541835  90.1320440  36.9406520   9.7966139  91.1488476  36.0212661
   9.3360004  87.8615483  36.8005120   8.8199053  87.0773939  36.6135048
  10.2199952  87.5334199  36.9651639   6.9970731  81.6056498  32.7600932
   6.7995552  81.2971587  33.6444264   7.6070436  82.3318137  32.8898862
  15.0042065  92.1320446  35.8952873  15.7345454  91.8705734  36.4560576
  14.3949011  91.3949168  35.9354941  13.0857362  90.2728309  36.4927324
  12.3590526  90.1384274  35.8843816  12.6704649  90.5805137  37.2984042
   0.9087539  93.9918239  44.2574697   1.8290548  94.1696838  44.4514744
   0.8737122  93.0474284  44.1054397   2.7544377  81.4865405  30.5097464
   3.3075416  81.9060859  31.1687487   2.9914464  80.5601153  30.5520420
   6.1323184  83.5965930  30.0176128   5.5521854  84.2550734  29.6354180
   5.8659117  82.7743275  29.6063545   4.5826751  82.9970988  32.2197448
   5.0826529  83.1087523  31.4111767   5.2262359  82.6932041  32.8598257
   4.9148063  85.7566021  29.0732476   4.0273918  86.0415671  28.8552671
   5.3302052  85.5959784  28.2259753   8.2662599  85.7812542  32.7886815
   9.0422989  86.2708994  33.0611432   7.5410733  86.2070596  33.2458685
  10.7035157  86.4940161  33.8460756  11.2979648  86.2535897  33.1354064
  10.7761741  85.7747292  34.4734292   4.8889086  91.2720557  29.2882766
   4.8324288  91.7289108  28.4490399   5.4417429  90.5111241  29.1105609
   8.6993892  87.0610289  30.1132886   8.4430826  86.6606924  30.9441093
   8.0746760  87.7754083  29.9883025  13.0106230  89.8006362  32.6204177
  12.4505788  89.8699551  33.3935739  12.4049733  89.6247347  31.9003673
   5.6223866  92.4625338  26.5835295   5.5672669  92.2969609  25.6423740
   4.9969921  93.1701371  26.7397485   2.9369773  94.7674250  45.9088858
   3.8060932  94.9414902  45.5475493   2.4576524  95.5868667  45.7864588
   2.7472110  78.5576224  30.4166551   1.9804506  78.0034710  30.5623233
   3.1582815  78.6298092  31.2780702  14.5962248 106.4762876  35.3134133
  15.2340658 106.3569623  34.6097473  14.4783091 107.4243720  35.3722085
  11.4051955 106.4290304  35.2495658  11.0670466 106.3131369  34.3616192
  12.2741723 106.0281469  35.2296664  14.1503517 104.2014330  32.3887341
  14.9366606 103.7833753  32.0377758  14.4142221 105.1060422  32.5568989
  19.5511944 104.1389563  33.2920319  20.2837116 103.5688780  33.5258149
  18.7951300 103.7511163  33.7326825  11.1688064 106.5616804  30.4883662
  10.8046271 106.0347425  31.1996583  12.0255180 106.1715273  30.3150147
  17.0737364  97.8511137  37.7514928  16.7420689  98.7206548  37.5276143
  16.4782978  97.5347421  38.4308958  16.9666028 102.5706223  34.8308278
  16.0582905 102.5021632  34.5367039  16.9153624 103.0478168  35.6590104
  11.0406894 103.9895869  42.7743175  10.2640228 104.5489789  42.7646040
  11.6797457 104.4752652  43.2958045  18.8327674 100.7722662  36.6086152
  18.1902054 101.0655195  35.9625947  18.3282603 100.6575582  37.4139349
  16.4867838 104.5185835  27.2972011  17.3985694 104.7513222  27.1219709
  15.9777485 105.1022879  26.7347090  11.1239676 103.8783069  38.3066861
  11.9700871 104.3022483  38.4501510  11.0638313 103.2216694  39.0005424
  14.2739121 101.5387438  39.9648034  14.0300053 102.2929498  39.4282310
  14.5499051 101.9172785  40.7995281  16.2277584 108.0826050  38.6425300
  16.4394479 108.7257810  37.9659681  16.1807332 107.2488367  38.1747230
  13.8303813 100.6943871  35.5461872  12.9688292 100.9925124  35.8378610
  13.8566247 100.9114270  34.6142905   8.0314630 103.9520970  43.1376452
   7.4013290 104.6337251  43.3711849   7.9250717 103.8404052  42.1929591
  25.4329405 107.3036754  33.1632629  24.6793113 106.7344152  33.0076633
  25.5676946 107.2699418  34.1103263   7.3095372  98.2541736  45.5001703
   6.9162318  97.7007935  46.1749348   8.1261513  98.5652315  45.8908221
  10.2263333  99.6699615  43.0921960  10.9673047 100.2706768  43.0126422
  10.4581256  98.9277253  42.5340003  14.1720496  95.6980718  37.3686242
  13.8284766  96.5882360  37.2925352  14.5399459  95.5082376  36.5055827
  11.7217890 100.5339030  30.9343915  10.8659486 100.1445880  30.7549554
  12.1344842 100.6130991  30.0743701  13.2517037  98.0685373  35.3335475
  12.7481832  98.0315508  34.5203280  13.5447644  98.9778116  35.3932132
   9.4959923  98.1524103  34.3401657  10.3612919  97.9566912  33.9807546
   9.5637431  97.9234455  35.2671013  19.1105053 108.4421684  27.8111850
  18.3334496 108.1032843  27.3667012  19.7896534 108.4474307  27.1366815
  13.9257082 103.5616421  27.7018458  13.6207218 103.8762571  28.5528601
  14.8787524 103.6397841  27.7445791  17.3496360 107.9155665  34.4678458
  16.6920034 108.6054927  34.5558587  18.1536759 108.3052097  34.8112445
   7.1022242 100.3826311  31.7118023   7.6765994 100.1601492  30.9791216
   7.6893224 100.4515005  32.4646625  16.1601819 106.2700038  32.5182400
  16.6733701 106.9030030  33.0204110  16.8103043 105.6701233  32.1525760
   9.4044909  97.2567560  30.4393093   8.7509322  96.9416577  29.8149708
   9.3625383  96.6343300  31.1652916  12.6382650 103.7449493  34.7640740
  11.7205211 103.9664440  34.6062429  13.0542793 103.8195804  33.9052448
  13.4217697 105.1440909  29.8943421  14.1689516 105.6562306  29.5850543
  13.6909287 104.8224962  30.7547814  15.8696535 102.1798025  31.8762210
  15.1319291 101.6675412  32.2072453  16.1223308 101.7398407  31.0645487
  15.9708162  94.9574277  32.4703979  16.2767039  94.0971641  32.1829894
  16.6960767  95.5491898  32.2702973  10.2429242 105.2528070  32.9780170
  10.2977851 104.3001907  32.9022647   9.4320444 105.4087510  33.4621469
   8.1821602 103.8705130  30.7370549   7.3689467 104.1699301  31.1435741
   8.6780596 103.4760819  31.4545031  13.7795813 104.3346955  39.5685443
  14.1345201 104.5618428  40.4279909  14.4267944 104.6665331  38.9462698
  19.5093550 107.4565391  30.2734772  19.3711449 107.6466986  29.3455961
  19.1529769 108.2184773  30.7302823   7.6735676 101.4423486  36.3531784
   8.3135056 101.3012245  35.6554748   6.8413207 101.1557999  35.9770386
  19.5362930 109.5241918  35.2846044  19.9699436 109.4317207  36.1329098
  20.2494511 109.4999418  34.6466060   6.1489218 102.8261568  38.3003596
   6.8212272 102.6178930  37.6516244   5.3219005 102.6283654  37.8608828
  12.0514790  99.4523509  40.3169256  11.4042705 100.1513458  40.2233733
  12.8215806  99.8859653  40.6845505   9.1799016 105.8124130  38.5489712
   9.8898635 105.1717322  38.5076331   9.1368324 106.0637025  39.4715893
   7.8927950 102.7989348  40.3685352   7.3565307 102.3480086  41.0206948
   7.3044658 102.9335257  39.6255816   3.6267071 101.9345356  37.4538346
   3.5425260 101.3271025  36.7188756   2.8049778 102.4254374  37.4547843
  13.7990785 100.4198919  32.8208541  14.2959485  99.6668882  32.5009612
  13.0277767 100.4563236  32.2551751  21.6520543 106.1239285  34.4626833
  21.6410419 107.0064000  34.0920766  20.7837922 105.7710836  34.2681370
  10.3825754 102.5616302  32.5480226  10.0123541 102.0087343  33.2361132
  10.8784846 101.9574436  31.9955226  18.2693117 105.0187926  30.9296999
  18.7353569 105.8515917  30.8557302  18.7200618 104.5532907  31.6342257
  16.2409780  97.3868513  34.9687900  15.3272860  97.6172740  35.1370107
  16.6702881  97.4706957  35.8201933  16.0116238 105.5758405  37.4687794
  15.3587689 105.8234312  36.8140247  16.3896618 104.7622543  37.1350272
  12.0603811 106.3178216  43.9553831  11.3844448 106.2172345  44.6256207
  12.8831445 106.1617430  44.4189829   5.7791088  99.9720293  38.7933332
   5.8432414 100.8335124  38.3810730   5.7158208  99.3594295  38.0605691
   5.2543360 102.0443426  42.4406366   5.8815399 101.6620503  43.0543891
   4.3971279 101.8257628  42.8062059   5.5603150 101.9275851  34.3552270
   4.8389736 102.5411819  34.2159743   6.3496406 102.4633616  34.2768916
   8.3629463  99.2630278  40.6292921   8.8863865  99.5092574  41.3919231
   8.1441797 100.0950313  40.2096059   9.5682008 100.2043973  38.3142592
   9.2278829  99.4051786  38.7163272   8.8621015 100.5045684  37.7419425
  10.2198480  97.2893285  36.7669915  11.0424549  96.8153763  36.6448805
  10.4636544  98.0683769  37.2668601  13.0037838 101.0226693  27.9991149
  13.2201452 101.9051331  27.6979977  12.5231905 100.6312906  27.2696791
   7.7437059 103.9812406  34.5761894   7.5981640 104.2952709  35.4686175
   7.2662263 104.5997306  34.0232792   9.6033442 100.9714954  34.6242783
   9.5895011 100.0756047  34.2875081  10.3205870 100.9785618  35.2581069
  11.4559573 101.4052294  36.6695911  11.1977350 102.3269365  36.6680241
  10.9244613 101.0082729  37.3596375   9.0070338  99.8529334  29.8930353
   9.1286249  98.9245980  30.0921241   8.7172380  99.8668020  28.9808669
  11.8761528  97.5384245  33.0297073  11.8983225  97.6023578  32.0749053
  12.2929587  96.6988753  33.2237579  22.2545152 107.2739504  31.0676296
  22.6976299 106.5246829  30.6695419  21.3771663 107.2649641  30.6850028
   8.4911417 101.3661332  44.1020286   8.5399573 102.2423454  43.7198056
   9.0333932 100.8238725  43.5291929  19.0964138 108.7594921  40.6954152
  19.1462143 108.5944929  41.6369674  18.9878061 107.8922180  40.3052032
  16.3867900 104.7425849  42.0113458  17.2877763 104.6032314  41.7197456
  16.4615875 104.9080304  42.9511636  10.7210706 102.1192704  40.8566645
   9.8514015 102.4126270  40.5849233  10.9570186 102.7033149  41.5773908
  21.7978017 108.7444742  33.4598743  22.6324909 109.1834547  33.6236304
  21.9337146 108.2683396  32.6406989  18.8469523 106.3024477  39.4076231
  19.3223645 106.4952124  38.5995082  17.9235088 106.3583663  39.1619615
  13.4249740  98.3372321  38.3732065  13.9431683  99.0733348  38.0478554
  13.0704872  98.6436314  39.2078824  13.6762334  94.7572603  33.8932962
  13.9564088  94.0895792  34.5193388  14.4612941  94.9501699  33.3807625
  17.5471192 103.1790237  37.6404537  18.4988615 103.2788335  37.6616761
  17.3774643 102.3868506  38.1502621  15.5685572 100.2645821  37.8263938
  14.9735504 100.5450833  37.1310426  15.2835268 100.7539722  38.5980679
  20.0259270 106.3996357  36.7546836  19.9935590 105.4612358  36.9406520
  20.6359894 106.4780394  36.0212661  20.1753758 103.1907401  36.8005120
  19.6592807 102.4065857  36.6135048  21.0593707 102.8626117  36.9651639
  17.8364485  96.9348416  32.7600932  17.6389306  96.6263504  33.6444264
  18.4464191  97.6610055  32.8898862  25.8435820 107.4612364  35.8952873
  26.5739208 107.1997652  36.4560576  25.2342765 106.7241086  35.9354941
  23.9251117 105.6020227  36.4927324  23.1984280 105.4676191  35.8843816
  23.5098404 105.9097055  37.2984042  11.6647584  97.7379276  28.8873167
  10.8548312  97.3926361  29.2628413  12.3532001  97.4286820  29.4760778
  13.5938132  96.8157323  30.5097464  14.1469171  97.2352776  31.1687487
  13.8308218  95.8893071  30.5520420   9.6171231 102.8044397  46.2900227
   9.5167958 103.7538754  46.2212319   9.3992773 102.4762636  45.4176298
  16.9716939  98.9257848  30.0176128  16.3915608  99.5842652  29.6354180
  16.7052872  98.1035193  29.6063545  15.4220505  98.3262906  32.2197448
  15.9220284  98.4379440  31.4111767  16.0656113  98.0223959  32.8598257
  15.7541817 101.0857939  29.0732476  14.8667672 101.3707589  28.8552671
  16.1695806 100.9251702  28.2259753  19.1056353 101.1104460  32.7886815
  19.8816743 101.6000912  33.0611432  18.3804487 101.5362514  33.2458685
  21.5428912 101.8232079  33.8460756  22.1373403 101.5827815  33.1354064
  21.6155495 101.1039209  34.4734292  15.7282841 106.6012474  29.2882766
  15.6718042 107.0581026  28.4490399  16.2811183 105.8403159  29.1105609
  19.5387647 102.3902206  30.1132886  19.2824581 101.9898842  30.9441093
  18.9140515 103.1046000  29.9883025  23.8499985 105.1298280  32.6204177
  23.2899543 105.1991469  33.3935739  23.2443488 104.9539264  31.9003673
  16.4617620 107.7917256  26.5835295  16.4066424 107.6261527  25.6423740
  15.8363675 108.4993289  26.7397485   9.7713746  97.2925365  26.1620614
   9.7592415  98.2367205  26.3188885  10.6637167  97.1095510  25.8680075
  13.5865865  93.8868141  30.4166551  12.8198261  93.3326628  30.5623233
  13.9976570  93.9590010  31.2780702   5.5907626 100.1752937  44.5071732
   6.4539088  99.8189742  44.7175056   5.0173037  99.8366832  45.1947136
  26.8101916 110.2866195  32.4703979  27.1160793 109.4263558  32.1829894
  27.5354521 110.8783815  32.2702973  24.5156088 110.0864521  33.8932962
  24.7957842 109.4187710  34.5193388  25.3006695 110.2793617  33.3807625
  28.6758240 112.2640334  32.7600932  28.4783061 111.9555422  33.6444264
  29.2857945 112.9901973  32.8898862  24.4259619 109.2160059  30.4166551
  23.6592015 108.6618546  30.5623233  24.8370324 109.2881928  31.2780702
   3.7541897  53.6515041  19.8877935   3.0005605  53.0822439  19.7321940
   3.8889438  53.6177706  20.8348570   4.1648312  53.8090651  22.6198180
   4.8951700  53.5475939  23.1805883   3.5555257  53.0719373  22.6600248
   2.2463609  51.9498514  23.2172631   1.5196773  51.8154479  22.6089123
   1.8310896  52.2575342  24.0229349   2.1712477  51.4776567  19.3449484
   1.6112035  51.5469756  20.1181046   1.5655980  51.3017551  18.6248980
   3.7568495  68.1533081  22.0379439   4.3946905  68.0339828  21.3342780
   3.6389338  69.1013925  22.0967392   1.0477985  69.2595361  27.9327170
   1.0366625  68.8648159  27.0607673   1.2098624  68.5261433  28.5260941
   3.3109764  65.8784535  19.1132648   4.0972853  65.4603958  18.7623065
   3.5748468  66.7830627  19.2814296   8.7118191  65.8159768  20.0165626
   9.4443363  65.2458985  20.2503456   7.9557547  65.4281368  20.4572132
   6.2343611  59.5281342  24.4760235   5.9026936  60.3976753  24.2521450
   5.6389225  59.2117626  25.1554265   2.7275131  71.7293888  23.8756147
   2.4275854  72.6318927  23.7671955   2.3826190  71.4626071  24.7277300
   6.1272275  64.2476428  21.5553585   5.2189152  64.1791837  21.2612346
   6.0759870  64.7248373  22.3835410   7.9933921  62.4492866  23.3331459
   7.3508301  62.7425400  22.6871253   7.4888849  62.3345787  24.1384655
   5.6474085  66.1956040  14.0217318   6.5591941  66.4283426  13.8465015
   5.1383732  66.7793084  13.4592396   3.9314852  70.6180668  27.6578610
   4.3398208  70.1763078  26.9133243   3.2092114  70.0433295  27.9112803
   4.2543667  71.1781858  21.4130899   3.6252529  71.3427572  20.7106967
   3.8669329  71.5923468  22.1841863   8.1332899  72.1136296  18.7675263
   7.4483937  72.4935197  18.2172296   8.2176748  72.7231623  19.5007211
   3.4345368  63.2157643  26.6893341   3.1906300  63.9699703  26.1527617
   3.7105298  63.5942990  27.5240588   5.3883830  69.7596255  25.3670607
   5.6000726  70.4028015  24.6904988   5.3413579  68.9258572  24.8992537
   2.9910059  62.3714076  22.2707179   2.1294538  62.6695329  22.5623916
   3.0172494  62.5884475  21.3388211   6.5029658  72.6368210  23.5392964
   7.3247102  72.2348398  23.2575646   6.4992061  72.5336445  24.4909080
  14.5935651  68.9806959  19.8877935  13.8399360  68.4114357  19.7321940
  14.7283193  68.9469623  20.8348570   1.6102756  74.4743928  29.6932997
   1.1666610  73.6880306  29.3753901   2.2719969  74.6623078  29.0276888
   3.7083994  74.7546728  27.7214398   3.6902469  75.5755609  27.2294667
   4.6303914  74.6300803  27.9464539   3.3326743  57.3750923  24.0931548
   2.9891012  58.2652565  24.0170659   3.7005706  57.1852581  23.2301133
   2.4123283  59.7455578  22.0580781   1.9088079  59.7085713  21.2448587
   2.7053890  60.6548321  22.1177438   8.2711300  70.1191889  14.5357157
   7.4940743  69.7803048  14.0912319   8.9502781  70.1244512  13.8612122
   3.0863329  65.2386626  14.4263765   2.7813464  65.5532775  15.2773908
   4.0393771  65.3168046  14.4691098   6.5102607  69.5925870  21.1923765
   5.8526281  70.2825131  21.2803893   7.3143006  69.9822302  21.5357751
   5.3208066  67.9470243  19.2427707   5.8339947  68.5800235  19.7449416
   5.9709289  67.3471438  18.8771067   1.7988896  65.4219698  21.4886047
   0.8811458  65.6434645  21.3307735   2.2149040  65.4966009  20.6297754
   2.5823944  66.8211114  16.6188727   3.3295763  67.3332511  16.3095849
   2.8515534  66.4995167  17.4793121   6.0869862  72.9276244  17.3706849
   5.6332189  72.0867154  17.4272040   5.4563829  73.5637643  17.7081629
   5.0302781  63.8568230  18.6007517   4.2925538  63.3445616  18.9317759
   5.2829555  63.4168612  17.7890794   4.5302801  74.7652741  18.3056667
   4.8225775  75.3257798  17.5869033   5.0401422  75.0581302  19.0609826
   5.1314409  56.6344482  19.1949286   5.4373285  55.7741846  18.9075201
   5.8567014  57.2262102  18.9948280   2.9402060  66.0117160  26.2930750
   3.2951448  66.2388633  27.1525216   3.5874191  66.3435536  25.6708005
   8.6699797  69.1335595  16.9980079   8.5317696  69.3237191  16.0701268
   8.3136016  69.8954978  17.4548130   8.6969177  71.2012122  22.0091350
   9.1305683  71.1087412  22.8574404   9.4100757  71.1769623  21.3711366
   2.4297071  74.8014217  23.5424451   2.4834094  75.3705153  24.3102167
   1.5611853  74.9716102  23.1778488   9.5584726  71.2435823  24.5424236
   9.7520616  72.1481634  24.7883511   9.4585344  70.7843242  25.3762821
   1.2121037  61.1293714  27.0414563   0.5648952  61.8283663  26.9479039
   1.9822052  61.5629858  27.4090811   4.6199835  71.3942566  30.1165116
   4.4685341  71.1653118  29.1995200   4.6104514  72.3513167  30.1296461
   1.3885171  68.9674479  25.1011383   2.3177231  69.1185638  24.9280350
   0.9676201  69.0558499  24.2460029   1.7378718  72.3706746  20.2598758
   1.4028551  72.3307516  21.1556408   1.2382664  71.7051462  19.7869168
   6.3292041  74.4261688  28.1941598   6.2704588  73.7420909  27.5272181
   6.7311560  75.1680678  27.7422224   6.3309449  72.3901272  26.4255578
   5.4436227  72.0527194  26.5481977   6.9008000  71.6584304  26.6624343
   2.9597032  62.0969124  19.5453848   3.4565731  61.3439087  19.2254918
   2.1884013  62.1333441  18.9797057  10.8126789  67.8009490  21.1872139
  10.8016666  68.6834205  20.8166073   9.9444169  67.4481041  20.9926677
   2.3209286  76.9489559  25.5474980   3.0337258  77.5837024  25.4750881
   1.8299314  77.0453425  24.7314982   4.0426813  70.8540811  17.1192271
   3.1083091  70.9742274  16.9496976   4.2203481  69.9513278  16.8552281
   7.4299364  66.6958131  17.6542306   7.8959816  67.5286122  17.5802608
   7.8806864  66.2303112  18.3587564   5.4016027  59.0638718  21.6933207
   4.4879106  59.2942945  21.8615414   5.8309128  59.1477162  22.5447239
   5.1722485  67.2528610  24.1933101   4.5193935  67.5004517  23.5385554
   5.5502865  66.4392748  23.8595578   1.2210058  67.9948421  30.6799138
   0.5450695  67.8942550  31.3501513   2.0437692  67.8387634  31.1435135
   4.8143715  74.1276606  30.7705408   5.3583619  74.7406564  30.2760363
   4.2330560  74.6856184  31.2872421   3.1001228  77.2497324  21.9020436
   2.9752368  76.4487064  21.3931382   3.7580319  77.7443517  21.4134406
   5.1636137  75.0506344  23.5299986   4.2166472  74.9311695  23.4578313
   5.5118910  74.1628842  23.6126248   2.1682570  74.8459060  19.7304338
   2.0207532  73.9175767  19.9111908   2.9936064  74.8679151  19.2461414
   5.7716692  75.6687619  20.8169211   6.6963239  75.4630480  20.6793662
   5.6031995  75.4204020  21.7258553   2.1644084  62.6996898  14.7236456
   2.3807699  63.5821535  14.4225284   1.6838151  62.3083111  13.9942098
   1.0367775  59.2154450  19.7542380   1.0589472  59.2793783  18.7994359
   1.4535834  58.3758958  19.9482886  11.4151399  68.9509709  17.7921602
  11.8582545  68.2017034  17.3940726  10.5377910  68.9419845  17.4095334
   8.4478604  72.9539756  14.8015532   8.9729928  73.2927029  14.0764852
   8.3600956  72.0186771  14.6178666   8.1372510  73.5872660  30.1066730
   7.3468053  73.5696799  29.5671229   7.9005864  74.1260953  30.8615766
   8.2570385  70.4365126  27.4199458   8.3068390  70.2715134  28.3614981
   8.1484308  69.5692385  27.0297339   5.5474147  66.4196054  28.7358765
   6.4484010  66.2802519  28.4442763   5.6222122  66.5850509  29.6756942
   9.7588582  72.8562068  27.6641480   9.4673390  73.2192048  28.5004941
   9.1460713  72.1429076  27.4854812  10.9584264  70.4214947  20.1844050
  11.7931155  70.8604751  20.3481610  11.0943393  69.9453601  19.3652296
   8.0075770  67.9794682  26.1321538   8.4829891  68.1722329  25.3240389
   7.0841335  68.0353868  25.8864921   2.5855986  60.0142526  25.0977372
   3.1037930  60.7503553  24.7723860   2.2311119  60.3206519  25.9324131
   2.8368581  56.4342808  20.6178268   3.1170334  55.7665997  21.2438695
   3.6219187  56.6271904  20.1052932   6.7077439  64.8560442  24.3649843
   7.6594862  64.9558540  24.3862067   6.5380889  64.0638711  24.8747928
   4.7291818  61.9416026  24.5509244   4.1341750  62.2221038  23.8555733
   4.4441515  62.4309926  25.3225985   9.1865517  68.0766562  23.4792143
   9.1541837  67.1382563  23.6651827   9.7966140  68.1550599  22.7457968
   9.3360005  64.8677605  23.5250426   8.8199054  64.0836062  23.3380355
  10.2199954  64.5396322  23.6896946   6.9970732  58.6118621  19.4846239
   6.7995553  58.3033709  20.3689571   7.6070438  59.3380260  19.6144169
  15.0042066  69.1382569  22.6198180  15.7345455  68.8767857  23.1805883
  14.3949012  68.4011291  22.6600248  13.0857364  67.2790431  23.2172631
  12.3590527  67.1446396  22.6089123  12.6704650  67.5867260  24.0229349
   0.9087540  70.9980361  30.9820004   1.8290550  71.1758960  31.1760051
   0.8737123  70.0536406  30.8299703   2.7544379  58.4927528  17.2342770
   3.3075417  58.9122981  17.8932793   2.9914465  57.5663276  17.2765726
   6.1323186  60.6028053  16.7421434   5.5521855  61.2612857  16.3599487
   5.8659118  59.7805398  16.3308852   4.5826752  60.0033111  18.9442755
   5.0826530  60.1149645  18.1357074   5.2262360  59.6994164  19.5843563
   4.9148064  62.7628143  15.7977783   4.0273919  63.0477794  15.5797977
   5.3302053  62.6021907  14.9505060   8.2662600  62.7874664  19.5132122
   9.0422990  63.2771117  19.7856739   7.5410734  63.2132719  19.9703991
  10.7035159  63.5002284  20.5706063  11.2979649  63.2598020  19.8599371
  10.7761742  62.7809414  21.1979599   4.8889088  68.2782679  16.0128073
   4.8324289  68.7351231  15.1735705   5.4417430  67.5173364  15.8350916
   8.6993893  64.0672411  16.8378192   8.4430828  63.6669047  17.6686400
   8.0746761  64.7816205  16.7128332  13.0106231  66.8068484  19.3449484
  12.4505789  66.8761674  20.1181046  12.4049735  66.6309469  18.6248980
   5.6223867  69.4687461  13.3080602   5.5672671  69.3031732  12.3669046
   4.9969922  70.1763494  13.4642792   2.9369774  71.7736372  32.6334165
   3.8060934  71.9477025  32.2720800   2.4576525  72.5930789  32.5109894
   2.7472112  55.5638346  17.1411857   1.9804508  55.0096833  17.2868540
   3.1582817  55.6360215  18.0026009  14.5962250  83.4824998  22.0379439
  15.2340660  83.3631746  21.3342780  14.4783093  84.4305842  22.0967392
  11.4051956  83.4352427  21.9740964  11.0670468  83.3193491  21.0861499
  12.2741724  83.0343592  21.9541970  11.8871739  84.5887278  27.9327170
  11.8760380  84.1940077  27.0607673  12.0492378  83.8553351  28.5260941
   8.6079000  87.3724390  26.8806354   8.3168866  88.2770021  26.7653020
   9.2435985  87.4140918  27.5950423   9.5335207  84.7501239  23.4707713
  10.1298779  84.5257261  22.7564676   9.5910179  84.0085984  24.0733161
  14.1503518  81.2076452  19.1132648  14.9366607  80.7895875  18.7623065
  14.4142223  82.1122544  19.2814296  19.5511945  81.1451685  20.0165626
  20.2837117  80.5750902  20.2503456  18.7951301  80.7573286  20.4572132
  11.1688065  83.5678927  17.2128968  10.8046272  83.0409548  17.9241890
  12.0255181  83.1777396  17.0395454  17.0737366  74.8573260  24.4760235
  16.7420690  75.7268671  24.2521450  16.4782979  74.5409544  25.1554265
  13.5668885  87.0585806  23.8756147  13.2669608  87.9610844  23.7671955
  13.2219945  86.7917989  24.7277300   7.0181367  83.5099602  19.9092852
   6.0931863  83.3775817  20.1170544   7.2665780  84.2893822  20.4062794
  16.9666029  79.5768346  21.5553585  16.0582906  79.5083754  21.2612346
  16.9153625  80.0540291  22.3835410  11.0406895  80.9957991  29.4988482
  10.2640229  81.5551911  29.4891347  11.6797458  81.4814774  30.0203352
  18.8327675  77.7784784  23.3331459  18.1902056  78.0717317  22.6871253
  18.3282604  77.6637704  24.1384655  16.4867839  81.5247957  14.0217318
  17.3985695  81.7575344  13.8465015  15.9777486  82.1085002  13.4592396
   9.2953267  83.8043445  29.0606449  10.0367951  84.3428489  28.7841273
   8.5890253  84.4309733  29.2178001  14.7708607  85.9472585  27.6578610
  15.1791963  85.5054996  26.9133243  14.0485868  85.3725213  27.9112803
  11.1239677  80.8845192  25.0312167  11.9700872  81.3084606  25.1746816
  11.0638314  80.2278816  25.7250731  15.0937421  86.5073776  21.4130899
  14.4646284  86.6719490  20.7106967  14.7063083  86.9215385  22.1841863
  18.9726653  87.4428214  18.7675263  18.2877691  87.8227115  18.2172296
  19.0570503  88.0523540  19.5007211  14.2739122  78.5449560  26.6893341
  14.0300054  79.2991621  26.1527617  14.5499053  78.9234908  27.5240588
  16.2277585  85.0888173  25.3670607  16.4394480  85.7319933  24.6904988
  16.1807333  84.2550489  24.8992537  13.8303814  77.7005993  22.2707179
  12.9688293  77.9987247  22.5623916  13.8566249  77.9176392  21.3388211
  10.6465383  86.2448184  18.6780984  11.1103729  86.5235887  17.8885607
  10.3822181  85.3431628  18.4954075   7.5389464  85.7919665  21.6160748
   8.1090821  86.2206934  20.9778232   8.1297576  85.5102250  22.3144933
   8.0314631  80.9583093  29.8621759   7.4013291  81.6399374  30.0957156
   7.9250719  80.8466174  28.9174897  17.3423413  87.9660128  23.5392964
  18.1640857  87.5640315  23.2575646  17.3385816  87.8628362  24.4909080
  11.1080016  87.5144171  25.6953674  11.1724449  87.9764579  26.5311846
  10.3990940  86.8841536  25.8235984   1.6097306  80.8785379  23.2202674
   1.8605345  81.7632389  23.4860250   2.1456855  80.6989981  22.4477766
  25.4329406  84.3098877  19.8877935  24.6793114  83.7406275  19.7321940
  25.5676947  84.2761541  20.8348570   7.3095374  75.2603859  32.2247010
   6.9162319  74.7070057  32.8994654   8.1261514  75.5714437  32.6153528
  10.2263335  76.6761738  29.8167267  10.9673048  77.2768891  29.7371729
  10.4581257  75.9339376  29.2585309   5.3704673  81.8618105  28.0945496
   5.2558188  80.9603362  28.3952595   4.5149190  82.1081802  27.7430313
  12.4496510  89.8035845  29.6932997  12.0060365  89.0172224  29.3753901
  13.1113724  89.9914996  29.0276888  14.5477748  90.0838645  27.7214398
  14.5296224  90.9047526  27.2294667  15.4697668  89.9592721  27.9464539
  11.0050803  87.5982775  28.5637907  11.5379139  86.8371063  28.3337214
  10.4764884  87.3056427  29.3062061  14.1720498  72.7042841  24.0931548
  13.8284767  73.5944482  24.0170659  14.5399460  72.5144498  23.2301133
  11.7217891  77.5401153  17.6589222  10.8659488  77.1508003  17.4794860
  12.1344843  77.6193113  16.7989007  13.2517038  75.0747496  22.0580781
  12.7481833  75.0377631  21.2448587  13.5447645  75.9840239  22.1177438
   9.4959924  75.1586226  21.0646963  10.3612921  74.9629034  20.7052853
   9.5637433  74.9296577  21.9916320  19.1105054  85.4483807  14.5357157
  18.3334497  85.1094966  14.0912319  19.7896535  85.4536430  13.8612122
  13.9257083  80.5678544  14.4263765  13.6207219  80.8824693  15.2773908
  14.8787526  80.6459964  14.4691098  17.3496361  84.9217788  21.1923765
  16.6920036  85.6117049  21.2803893  18.1536760  85.3114220  21.5357751
   7.1022243  77.3888434  18.4363330   7.6765995  77.1663615  17.7036523
   7.6893225  77.4577128  19.1891931  16.1601820  83.2762160  19.2427707
  16.6733702  83.9092152  19.7449416  16.8103044  82.6763356  18.8771067
   9.4044911  74.2629682  17.1638399   8.7509323  73.9478700  16.5395014
   9.3625385  73.6405423  17.8898222  12.6382651  80.7511616  21.4886047
  11.7205212  80.9726563  21.3307735  13.0542795  80.8257926  20.6297754
  13.4217699  82.1503032  16.6188727  14.1689518  82.6624429  16.3095849
  13.6909288  81.8287084  17.4793121  16.9263616  88.2568162  17.3706849
  16.4725943  87.4159072  17.4272040  16.2957583  88.8929560  17.7081629
  15.8696536  79.1860148  18.6007517  15.1319293  78.6737534  18.9317759
  16.1223309  78.7460530  17.7890794  15.3696556  90.0944659  18.3056667
  15.6619530  90.6549716  17.5869033  15.8795176  90.3873220  19.0609826
  15.9708163  71.9636400  19.1949286  16.2767040  71.1033763  18.9075201
  16.6960768  72.5554020  18.9948280  10.2429243  82.2590193  19.7025477
  10.2977853  81.3064029  19.6267954   9.4320445  82.4149632  20.1866775
   8.1821603  80.8767253  17.4615856   7.3689468  81.1761423  17.8681048
   8.6780597  80.4822942  18.1790338  13.7795815  81.3409077  26.2930750
  14.1345202  81.5680550  27.1525216  14.4267946  81.6727454  25.6708005
  19.5093551  84.4627513  16.9980079  19.3711450  84.6529109  16.0701268
  19.1529770  85.2246896  17.4548130   7.6735678  78.4485608  23.0777091
   8.3135057  78.3074367  22.3800054   6.8413208  78.1620122  22.7015693
  19.5362931  86.5304040  22.0091350  19.9699438  86.4379329  22.8574404
  20.2494512  86.5061541  21.3711366  13.2690826  90.1306134  23.5424451
  13.3227848  90.6997071  24.3102167  12.4005607  90.3008019  23.1778488
   6.1489219  79.8323690  25.0248902   6.8212273  79.6241053  24.3761551
   5.3219006  79.6345776  24.5854134  20.3978481  86.5727741  24.5424236
  20.5914371  87.4773551  24.7883511  20.2979099  86.1135160  25.3762821
  12.0514791  76.4585631  27.0414563  11.4042706  77.1575581  26.9479039
  12.8215807  76.8921775  27.4090811  15.4593589  86.7234484  30.1165116
  15.3079096  86.4945035  29.1995200  15.4498269  87.6805085  30.1296461
  12.2278926  84.2966396  25.1011383  13.1570986  84.4477556  24.9280350
  11.8069956  84.3850417  24.2460029  11.0267257  88.3217061  22.8709920
  10.8878343  87.9535845  23.7435858  10.2381854  88.8364700  22.6993878
  12.5772473  87.6998663  20.2598758  12.2422305  87.6599433  21.1556408
  12.0776418  87.0343379  19.7869168   6.5516717  83.1066293  25.7851339
   6.4136515  82.3746532  26.3862878   7.4621640  83.0175194  25.5035527
   9.1799017  82.8186253  25.2735019   9.8898636  82.1779445  25.2321637
   9.1368325  83.0699148  26.1961200  17.1685796  89.7553606  28.1941598
  17.1098342  89.0712826  27.5272181  17.5705314  90.4972596  27.7422224
   7.8927951  79.8051471  27.0930658   7.3565308  79.3542209  27.7452255
   7.3044660  79.9397379  26.3501123  17.1703203  87.7193190  26.4255578
  16.2829982  87.3819112  26.5481977  17.7401754  86.9876221  26.6624343
   3.6267072  78.9407478  24.1783653   3.5425261  78.3333148  23.4434063
   2.8049779  79.4316497  24.1793149  10.7004357  92.3794642  23.3916821
  10.6274528  93.1849614  23.9036126  10.2581750  92.5786608  22.5664842
  13.7990786  77.4261042  19.5453848  14.2959486  76.6731004  19.2254918
  13.0277768  77.4625359  18.9797057  21.6520544  83.1301407  21.1872139
  21.6410420  84.0126123  20.8166073  20.7837923  82.7772958  20.9926677
  13.1603040  92.2781476  25.5474980  13.8731012  92.9128941  25.4750881
  12.6693069  92.3745342  24.7314982  14.8820567  86.1832729  17.1192271
  13.9476846  86.3034192  16.9496976  15.0597236  85.2805196  16.8552281
  10.3825755  79.5678425  19.2725533  10.0123543  79.0149465  19.9606438
  10.8784848  78.9636558  18.7200533  18.2693118  82.0250048  17.6542306
  18.7353571  82.8578040  17.5802608  18.7200619  81.5595030  18.3587564
   8.2114954  90.0275920  26.3680551   8.9124413  90.6612403  26.5209945
   7.7410069  90.3690651  25.6076190  16.2409781  74.3930635  21.6933207
  15.3272861  74.6234862  21.8615414  16.6702883  74.4769079  22.5447239
  16.0116240  82.5820527  24.1933101  15.3587690  82.8296435  23.5385554
  16.3896620  81.7684666  23.8595578  12.0603813  83.3240338  30.6799138
  11.3844450  83.2234468  31.3501513  12.8831447  83.1679552  31.1435135
  10.8026596  94.6307266  24.9156754  11.3544904  94.7938887  25.6805839
  11.1432789  95.2211704  24.2436779   5.7791089  76.9782416  25.5178639
   5.8432415  77.8397247  25.1056036   5.7158209  76.3656417  24.7850997
   5.2543361  79.0505548  29.1651673   5.8815400  78.6682625  29.7789197
   4.3971280  78.8319750  29.5307365  15.6537470  89.4568523  30.7705408
  16.1977374  90.0698482  30.2760363  15.0724315  90.0148102  31.2872421
  13.9394983  92.5789241  21.9020436  13.8146122  91.7778981  21.3931382
  14.5974074  93.0735435  21.4134406   5.5603151  78.9337974  21.0797576
   4.8389737  79.5473942  20.9405050   6.3496407  79.4695739  21.0014222
  16.0029891  90.3798261  23.5299986  15.0560227  90.2603613  23.4578313
  16.3512664  89.4920759  23.6126248   8.3629465  76.2692400  27.3538228
   8.8863866  76.5154697  28.1164537   8.1441798  77.1012435  26.9341365
  13.0076325  90.1750978  19.7304338  12.8601287  89.2467685  19.9111908
  13.8329818  90.1971068  19.2461414  16.6110446  90.9979536  20.8169211
  17.5356994  90.7922398  20.6793662  16.4425750  90.7495938  21.7258553
   9.5682010  77.2106095  25.0387899   9.2278830  76.4113909  25.4408579
   8.8621016  77.5107806  24.4664732  10.2198481  74.2955408  23.4915222
  11.0424551  73.8215886  23.3694112  10.4636545  75.0745892  23.9913908
  13.0037839  78.0288815  14.7236456  13.2201453  78.9113453  14.4225284
  12.5231906  77.6375029  13.9942098   7.7437060  80.9874529  21.3007200
   7.5981641  81.3014832  22.1931482   7.2662264  81.6059429  20.7478099
   9.6033443  77.9777077  21.3488090   9.5895012  77.0818170  21.0120388
  10.3205871  77.9847740  21.9826376  11.4559574  78.4114417  23.3941217
  11.1977352  79.3331487  23.3925548  10.9244614  78.0144851  24.0841681
   2.2182722  83.5279873  24.2394861   1.6736190  84.3039681  24.3715136
   3.0962072  83.8750677  24.0813983   9.0070339  76.8591457  16.6175660
   9.1286250  75.9308103  16.8166547   8.7172381  76.8730143  15.7053975
  11.8761529  74.5446367  19.7542380  11.8983226  74.6085700  18.7994359
  12.2929588  73.7050876  19.9482886  22.2545154  84.2801627  17.7921602
  22.6976300  83.5308952  17.3940726  21.3771664  84.2711763  17.4095334
   3.0048744  82.6549769  27.1325018   2.2630480  82.8032405  27.7189649
   2.6841489  82.9158035  26.2691768  19.2872358  88.2831674  14.8015532
  19.8123682  88.6218947  14.0764852  19.1994711  87.3478689  14.6178666
  10.9492407  92.1965747  26.9305408  11.2579533  91.9514894  27.8028108
  11.7467889  92.4012386  26.4424279   8.4911419  78.3723454  30.8265593
   8.5399574  79.2485577  30.4443362   9.0333933  77.8300847  30.2537236
  18.9766264  88.9164577  30.1066730  18.1861808  88.8988716  29.5671229
  18.7399619  89.4552871  30.8615766  19.0964139  85.7657044  27.4199458
  19.1462144  85.6007051  28.3614981  18.9878063  84.8984303  27.0297339
  16.3867902  81.7487972  28.7358765  17.2877764  81.6094437  28.4442763
  16.4615876  81.9142427  29.6756942  10.7210707  79.1254827  27.5811951
   9.8514016  79.4188393  27.3094540  10.9570187  79.7095272  28.3019215
  20.5982336  88.1853985  27.6641480  20.3067144  88.5483966  28.5004941
  19.9854467  87.4720994  27.4854812  21.7978018  85.7506865  20.1844050
  22.6324910  86.1896669  20.3481610  21.9337147  85.2745518  19.3652296
  18.8469524  83.3086600  26.1321538  19.3223646  83.5014246  25.3240389
  17.9235090  83.3645786  25.8864921  13.4249741  75.3434443  25.0977372
  13.9431685  76.0795470  24.7723860  13.0704874  75.6498437  25.9324131
  13.6762335  71.7634726  20.6178268  13.9564089  71.0957915  21.2438695
  14.4612942  71.9563822  20.1052932  17.5471193  80.1852360  24.3649843
  18.4988616  80.2850458  24.3862067  17.3774644  79.3930629  24.8747928
  15.5685573  77.2707943  24.5509244  14.9735505  77.5512956  23.8555733
  15.2835270  77.7601844  25.3225985  20.0259271  83.4058480  23.4792143
  19.9935591  82.4674480  23.6651827  20.6359895  83.4842516  22.7457968
  20.1753760  80.1969523  23.5250426  19.6592808  79.4127980  23.3380355
  21.0593708  79.8688240  23.6896946  17.8364487  73.9410539  19.4846239
  17.6389308  73.6325627  20.3689571  18.4464192  74.6672178  19.6144169
  25.8435821  84.4674487  22.6198180  26.5739209  84.2059775  23.1805883
  25.2342766  83.7303208  22.6600248  23.9251118  82.6082349  23.2172631
  23.1984282  82.4738314  22.6089123  23.5098405  82.9159178  24.0229349
  11.7481295  86.3272279  30.9820004  12.6684304  86.5050878  31.1760051
  11.7130878  85.3828324  30.8299703   4.7443367  84.2373313  23.6242785
   4.9629377  85.1690421  23.6430819   5.1569141  83.8781288  24.4097589
  11.6647585  74.7441399  15.6118474  10.8548313  74.3988484  15.9873720
  12.3532002  74.4348943  16.2006085  13.5938133  73.8219446  17.2342770
  14.1469172  74.2414899  17.8932793  13.8308220  72.8955194  17.2765726
   9.6171232  79.8106519  33.0145534   9.5167959  80.7600876  32.9457625
   9.3992774  79.4824758  32.1421604  16.9716940  75.9319971  16.7421434
  16.3915609  76.5904775  16.3599487  16.7052873  75.1097315  16.3308852
  15.4220507  75.3325028  18.9442755  15.9220285  75.4441563  18.1357074
  16.0656115  75.0286081  19.5843563   9.4802502  83.2403658  31.8310596
   8.9969584  84.0404018  32.0374485   9.5663441  83.2511603  30.8778040
   5.4075840  87.1308193  23.8679030   6.3619093  87.0992135  23.8008961
   5.2088364  86.6698817  24.6829255   5.9975222  85.7009309  26.4349827
   6.8168111  86.1953387  26.4584664   6.2712030  84.7841277  26.4067395
  15.7541818  78.0920061  15.7977783  14.8667673  78.3769712  15.5797977
  16.1695807  77.9313824  14.9505060  19.1056354  78.1166582  19.5132122
  19.8816745  78.6063035  19.7856739  18.3804489  78.5424636  19.9703991
  21.5428913  78.8294201  20.5706063  22.1373404  78.5889937  19.8599371
  21.6155497  78.1101332  21.1979599  15.7282842  83.6074597  16.0128073
  15.6718043  84.0643148  15.1735705  16.2811184  82.8465282  15.8350916
  19.5387648  79.3964329  16.8378192  19.2824582  78.9960965  17.6686400
  18.9140516  80.1108123  16.7128332  23.8499986  82.1360402  19.3449484
  23.2899544  82.2053591  20.1181046  23.2443489  81.9601387  18.6248980
  16.4617621  84.7979378  13.3080602  16.4066425  84.6323650  12.3669046
  15.8363677  85.5055411  13.4642792   1.2510136  80.0347443  27.1342024
   1.8969000  79.5246397  27.6229249   1.0427287  80.7716124  27.7085450
  13.7763529  87.1028290  32.6334165  14.6454688  87.2768942  32.2720800
  13.2970280  87.9222707  32.5109894   9.7713747  74.2987487  12.8865920
   9.7592417  75.2429327  13.0434191  10.6637169  74.1157633  12.5925382
  13.5865866  70.8930264  17.1411857  12.8198262  70.3388751  17.2868540
  13.9976571  70.9652133  18.0026009   5.5907627  77.1815060  31.2317038
   6.4539089  76.8251865  31.4420363   5.0173038  76.8428955  31.9192443
  25.4356004  98.8116916  22.0379439  26.0734414  98.6923663  21.3342780
  25.3176847  99.7597760  22.0967392  22.2445711  98.7644344  21.9740964
  21.9064222  98.6485409  21.0861499  23.1135479  98.3635509  21.9541970
  22.7265494  99.9179196  27.9327170  22.7154134  99.5231994  27.0607673
  22.8886133  99.1845269  28.5260941  19.4472755 102.7016308  26.8806354
  19.1562621 103.6061939  26.7653020  20.0829739 102.7432835  27.5950423
  20.3728962 100.0793156  23.4707713  20.9692534  99.8549179  22.7564676
  20.4303933  99.3377902  24.0733161  24.9897273  96.5368370  19.1132648
  25.7760362  96.1187793  18.7623065  25.2535977  97.4414462  19.2814296
  30.3905700  96.4743603  20.0165626  31.1230872  95.9042820  20.2503456
  29.6345056  96.0865204  20.4572132  22.0081820  98.8970845  17.2128968
  21.6440027  98.3701466  17.9241890  22.8648935  98.5069314  17.0395454
  27.9131120  90.1865177  24.4760235  27.5814445  91.0560588  24.2521450
  27.3176734  89.8701461  25.1554265  24.4062640 102.3877723  23.8756147
  24.1063363 103.2902762  23.7671955  24.0613699 102.1209906  24.7277300
  17.8575121  98.8391520  19.9092852  16.9325618  98.7067734  20.1170544
  18.1059534  99.6185739  20.4062794  27.8059784  94.9060263  21.5553585
  26.8976661  94.8375672  21.2612346  27.7547379  95.3832208  22.3835410
  21.8800649  96.3249909  29.4988482  21.1033983  96.8843829  29.4891347
  22.5191212  96.8106692  30.0203352  29.6721430  93.1076702  23.3331459
  29.0295810  93.4009235  22.6871253  29.1676358  92.9929622  24.1384655
  27.3261594  96.8539875  14.0217318  28.2379450  97.0867262  13.8465015
  26.8171241  97.4376919  13.4592396  20.1347022  99.1335362  29.0606449
  20.8761706  99.6720406  28.7841273  19.4284007  99.7601651  29.2178001
  25.6102361 101.2764503  27.6578610  26.0185717 100.8346913  26.9133243
  24.8879623 100.7017130  27.9112803  21.9633431  96.2137110  25.0312167
  22.8094626  96.6376523  25.1746816  21.9032069  95.5570734  25.7250731
  25.9331176 101.8365693  21.4130899  25.3040038 102.0011408  20.7106967
  25.5456838 102.2507303  22.1841863  29.8120408 102.7720131  18.7675263
  29.1271446 103.1519033  18.2172296  29.8964257 103.3815458  19.5007211
  25.1132877  93.8741478  26.6893341  24.8693809  94.6283539  26.1527617
  25.3892807  94.2526826  27.5240588  27.0671339 100.4180090  25.3670607
  27.2788235 101.0611850  24.6904988  27.0201088  99.5842407  24.8992537
  24.6697568  93.0297911  22.2707179  23.8082047  93.3279165  22.5623916
  24.6960003  93.2468310  21.3388211  21.4859138 101.5740102  18.6780984
  21.9497483 101.8527805  17.8885607  21.2215936 100.6723546  18.4954075
  18.3783219 101.1211583  21.6160748  18.9484576 101.5498851  20.9778232
  18.9691331 100.8394168  22.3144933  18.8708385  96.2875011  29.8621759
  18.2407046  96.9691291  30.0957156  18.7644473  96.1758092  28.9174897
  28.1817167 103.2952046  23.5392964  29.0034611 102.8932233  23.2575646
  28.1779570 103.1920280  24.4909080  21.9473771 102.8436089  25.6953674
  22.0118203 103.3056496  26.5311846  21.2384695 102.2133454  25.8235984
  12.4491061  96.2077297  23.2202674  12.6999099  97.0924307  23.4860250
  12.9850609  96.0281899  22.4477766  36.2723160  99.6390794  19.8877935
  35.5186869  99.0698192  19.7321940  36.4070702  99.6053459  20.8348570
  18.1489128  90.5895776  32.2247010  17.7556074  90.0361975  32.8994654
  18.9655268  90.9006355  32.6153528  21.0657089  92.0053655  29.8167267
  21.8066802  92.6060809  29.7371729  21.2975012  91.2631293  29.2585309
  16.2098427  97.1910023  28.0945496  16.0951942  96.2895280  28.3952595
  15.3542945  97.4373720  27.7430313  23.2890265 105.1327763  29.6932997
  22.8454119 104.3464142  29.3753901  23.9507478 105.3206914  29.0276888
  25.3871503 105.4130563  27.7214398  25.3689978 106.2339444  27.2294667
  26.3091423 105.2884638  27.9464539  21.8444557 102.9274692  28.5637907
  22.3772894 102.1662981  28.3337214  21.3158638 102.6348344  29.3062061
  25.0114252  88.0334758  24.0931548  24.6678521  88.9236400  24.0170659
  25.3793215  87.8436416  23.2301133  22.5611646  92.8693070  17.6589222
  21.7053242  92.4799921  17.4794860  22.9738598  92.9485031  16.7989007
  24.0910792  90.4039414  22.0580781  23.5875588  90.3669549  21.2448587
  24.3841399  91.3132156  22.1177438  20.3353678  90.4878143  21.0646963
  21.2006675  90.2920952  20.7052853  20.4031187  90.2588495  21.9916320
  29.9498809 100.7775724  14.5357157  29.1728252 100.4386884  14.0912319
  30.6290290 100.7828347  13.8612122  24.7650838  95.8970462  14.4263765
  24.4600973  96.2116611  15.2773908  25.7181280  95.9751882  14.4691098
  28.1890116 100.2509705  21.1923765  27.5313790 100.9408967  21.2803893
  28.9930515 100.6406137  21.5357751  17.9415997  92.7180351  18.4363330
  18.5159749  92.4955533  17.7036523  18.5286980  92.7869046  19.1891931
  26.9995575  98.6054078  19.2427707  27.5127456  99.2384070  19.7449416
  27.6496798  98.0055274  18.8771067  20.2438665  89.5921600  17.1638399
  19.5903077  89.2770617  16.5395014  20.2019139  88.9697341  17.8898222
  23.4776405  96.0803534  21.4886047  22.5598967  96.3018481  21.3307735
  23.8936549  96.1549844  20.6297754  24.2611453  97.4794949  16.6188727
  25.0083272  97.9916347  16.3095849  24.5303043  97.1579002  17.4793121
  27.7657371 103.5860080  17.3706849  27.3119698 102.7450989  17.4272040
  27.1351337 104.2221478  17.7081629  26.7090290  94.5152066  18.6007517
  25.9713047  94.0029452  18.9317759  26.9617064  94.0752447  17.7890794
  26.2090310 105.4236576  18.3056667  26.5013284 105.9841633  17.5869033
  26.7188931 105.7165137  19.0609826  26.8101918  87.2928318  19.1949286
  27.1160794  86.4325681  18.9075201  27.5354522  87.8845938  18.9948280
  21.0822997  97.5882111  19.7025477  21.1371607  96.6355947  19.6267954
  20.2714199  97.7441550  20.1866775  19.0215357  96.2059170  17.4615856
  18.2083223  96.5053341  17.8681048  19.5174352  95.8114859  18.1790338
  24.6189569  96.6700995  26.2930750  24.9738957  96.8972468  27.1525216
  25.2661700  97.0019372  25.6708005  30.3487306  99.7919431  16.9980079
  30.2105205  99.9821027  16.0701268  29.9923525 100.5538814  17.4548130
  18.5129432  93.7777526  23.0777091  19.1528811  93.6366285  22.3800054
  17.6806963  93.4912039  22.7015693  30.3756686 101.8595958  22.0091350
  30.8093192 101.7671247  22.8574404  31.0888266 101.8353458  21.3711366
  24.1084580 105.4598052  23.5424451  24.1621603 106.0288988  24.3102167
  23.2399362 105.6299937  23.1778488  16.9882974  95.1615608  25.0248902
  17.6606027  94.9532970  24.3761551  16.1612760  94.9637694  24.5854134
  31.2372235 101.9019658  24.5424236  31.4308125 102.8065469  24.7883511
  31.1372853 101.4427078  25.3762821  22.8908546  91.7877549  27.0414563
  22.2436461  92.4867499  26.9479039  23.6609561  92.2213693  27.4090811
  26.2987344 102.0526401  30.1165116  26.1472850 101.8236953  29.1995200
  26.2892023 103.0097003  30.1296461  23.0672680  99.6258314  25.1011383
  23.9964740  99.7769474  24.9280350  22.6463710  99.7142335  24.2460029
  21.8661012 103.6508978  22.8709920  21.7272098 103.2827763  23.7435858
  21.0775608 104.1656618  22.6993878  23.4166227 103.0290581  20.2598758
  23.0816060 102.9891351  21.1556408  22.9170173 102.3635297  19.7869168
  17.3910471  98.4358211  25.7851339  17.2530269  97.7038450  26.3862878
  18.3015395  98.3467111  25.5035527  20.0192772  98.1478170  25.2735019
  20.7292390  97.5071363  25.2321637  19.9762080  98.3991065  26.1961200
  28.0079550 105.0845524  28.1941598  27.9492097 104.4004744  27.5272181
  28.4099069 105.8264514  27.7422224  18.7321706  95.1343388  27.0930658
  18.1959063  94.6834127  27.7452255  18.1438414  95.2689297  26.3501123
  28.0096958 103.0485108  26.4255578  27.1223736 102.7111029  26.5481977
  28.5795509 102.3168139  26.6624343  14.4660827  94.2699396  24.1783653
  14.3819016  93.6625066  23.4434063  13.6443533  94.7608414  24.1793149
  21.5398111 107.7086560  23.3916821  21.4668283 108.5141532  23.9036126
  21.0975504 107.9078526  22.5664842  24.6384541  92.7552960  19.5453848
  25.1353240  92.0022922  19.2254918  23.8671522  92.7917276  18.9797057
  32.4914298  98.4593325  21.1872139  32.4804174  99.3418040  20.8166073
  31.6231678  98.1064876  20.9926677  23.9996795 107.6073394  25.5474980
  24.7124767 108.2420859  25.4750881  23.5086823 107.7037260  24.7314982
  25.7214322 101.5124647  17.1192271  24.7870600 101.6326109  16.9496976
  25.8990990 100.6097114  16.8552281  21.2219510  94.8970343  19.2725533
  20.8517297  94.3441383  19.9606438  21.7178602  94.2928476  18.7200533
  29.1086873  97.3541966  17.6542306  29.5747325  98.1869958  17.5802608
  29.5594373  96.8886948  18.3587564  19.0508708 105.3567838  26.3680551
  19.7518168 105.9904321  26.5209945  18.5803823 105.6982569  25.6076190
  27.0803536  89.7222553  21.6933207  26.1666615  89.9526780  21.8615414
  27.5096637  89.8060997  22.5447239  26.8509994  97.9112445  24.1933101
  26.1981444  98.1588352  23.5385554  27.2290374  97.0976583  23.8595578
  22.8997567  98.6532256  30.6799138  22.2238204  98.5526385  31.3501513
  23.7225201  98.4971470  31.1435135  21.6420350 109.9599183  24.9156754
  22.1938658 110.1230805  25.6805839  21.9826543 110.5503621  24.2436779
  16.6184843  92.3074333  25.5178639  16.6826170  93.1689164  25.1056036
  16.5551964  91.6948335  24.7850997  16.0937116  94.3797466  29.1651673
  16.7209155  93.9974543  29.7789197  15.2365035  94.1611668  29.5307365
  26.4931224 104.7860441  30.7705408  27.0371128 105.3990399  30.2760363
  25.9118069 105.3440019  31.2872421  24.7788737 107.9081159  21.9020436
  24.6539877 107.1070899  21.3931382  25.4367828 108.4027352  21.4134406
  16.3996906  94.2629892  21.0797576  15.6783491  94.8765859  20.9405050
  17.1890161  94.7987656  21.0014222  26.8423646 105.7090179  23.5299986
  25.8953981 105.5895530  23.4578313  27.1906419 104.8212677  23.6126248
  19.2023219  91.5984318  27.3538228  19.7257621  91.8446615  28.1164537
  18.9835552  92.4304353  26.9341365  23.8470079 105.5042895  19.7304338
  23.6995041 104.5759603  19.9111908  24.6723572 105.5262986  19.2461414
  27.4504201 106.3271454  20.8169211  28.3750748 106.1214315  20.6793662
  27.2819504 106.0787855  21.7258553  20.4075764  92.5398013  25.0387899
  20.0672584  91.7405826  25.4408579  19.7014770  92.8399724  24.4664732
  21.0592236  89.6247326  23.4915222  21.8818305  89.1507804  23.3694112
  21.3030299  90.4037809  23.9913908  23.8431593  93.3580733  14.7236456
  24.0595208  94.2405371  14.4225284  23.3625660  92.9666946  13.9942098
  18.5830815  96.3166446  21.3007200  18.4375395  96.6306749  22.1931482
  18.1056018  96.9351347  20.7478099  20.4427198  93.3068994  21.3488090
  20.4288766  92.4110087  21.0120388  21.1599626  93.3139658  21.9826376
  22.2953328  93.7406334  23.3941217  22.0371106  94.6623405  23.3925548
  21.7638369  93.3436769  24.0841681  13.0576477  98.8571791  24.2394861
  12.5129945  99.6331599  24.3715136  13.9355827  99.2042595  24.0813983
  19.8464094  92.1883374  16.6175660  19.9680005  91.2600021  16.8166547
  19.5566136  92.2022060  15.7053975  22.7155284  89.8738285  19.7542380
  22.7376981  89.9377618  18.7994359  23.1323343  89.0342794  19.9482886
  33.0938908  99.6093544  17.7921602  33.5370054  98.8600870  17.3940726
  32.2165419  99.6003681  17.4095334  13.8442499  97.9841687  27.1325018
  13.1024235  98.1324322  27.7189649  13.5235243  98.2449952  26.2691768
  30.1266113 103.6123591  14.8015532  30.6517437 103.9510864  14.0764852
  30.0388465 102.6770607  14.6178666  21.7886161 107.5257665  26.9305408
  22.0973288 107.2806812  27.8028108  22.5861643 107.7304304  26.4424279
  19.3305173  93.7015372  30.8265593  19.3793329  94.5777495  30.4443362
  19.8727687  93.1592765  30.2537236  29.8160019 104.2456495  30.1066730
  29.0255562 104.2280634  29.5671229  29.5793373 104.7844789  30.8615766
  29.9357894 101.0948961  27.4199458  29.9855899 100.9298969  28.3614981
  29.8271817 100.2276220  27.0297339  27.2261656  97.0779889  28.7358765
  28.1271519  96.9386354  28.4442763  27.3009631  97.2434344  29.6756942
  21.5604461  94.4546744  27.5811951  20.6907771  94.7480310  27.3094540
  21.7963942  95.0387189  28.3019215  31.4376091 103.5145903  27.6641480
  31.1460899 103.8775884  28.5004941  30.8248222 102.8012911  27.4854812
  32.6371773 101.0798783  20.1844050  33.4718664 101.5188587  20.3481610
  32.7730902 100.6037436  19.3652296  29.6863279  98.6378518  26.1321538
  30.1617400  98.8306164  25.3240389  28.7628844  98.6937703  25.8864921
  24.2643495  90.6726361  25.0977372  24.7825439  91.4087388  24.7723860
  23.9098628  90.9790354  25.9324131  24.5156089  87.0926644  20.6178268
  24.7957843  86.4249833  21.2438695  25.3006696  87.2855739  20.1052932
  28.3864948  95.5144278  24.3649843  29.3382371  95.6142375  24.3862067
  28.2168398  94.7222546  24.8747928  26.4079327  92.5999861  24.5509244
  25.8129259  92.8804874  23.8555733  26.1229024  93.0893762  25.3225985
  30.8653026  98.7350397  23.4792143  30.8329346  97.7966398  23.6651827
  31.4753649  98.8134434  22.7457968  31.0147514  95.5261441  23.5250426
  30.4986563  94.7419897  23.3380355  31.8987463  95.1980157  23.6896946
  28.6758241  89.2702456  19.4846239  28.4783062  88.9617545  20.3689571
  29.2857947  89.9964095  19.6144169  36.6829575  99.7966404  22.6198180
  37.4132964  99.5351692  23.1805883  36.0736521  99.0595126  22.6600248
  34.7644873  97.9374267  23.2172631  34.0378036  97.8030232  22.6089123
  34.3492159  98.2451095  24.0229349  22.5875049 101.6564196  30.9820004
  23.5078058 101.8342795  31.1760051  22.5524632 100.7120242  30.8299703
  15.5837122  99.5665231  23.6242785  15.8023131 100.4982339  23.6430819
  15.9962895  99.2073206  24.4097589  22.5041339  90.0733316  15.6118474
  21.6942068  89.7280401  15.9873720  23.1925756  89.7640860  16.2006085
  24.4331888  89.1511363  17.2342770  24.9862926  89.5706817  17.8932793
  24.6701974  88.2247111  17.2765726  20.4564987  95.1398437  33.0145534
  20.3561714  96.0892794  32.9457625  20.2386529  94.8116676  32.1421604
  27.8110695  91.2611888  16.7421434  27.2309364  91.9196692  16.3599487
  27.5446627  90.4389233  16.3308852  26.2614261  90.6616946  18.9442755
  26.7614039  90.7733481  18.1357074  26.9049869  90.3577999  19.5843563
  20.3196257  98.5695576  31.8310596  19.8363339  99.3695936  32.0374485
  20.4057196  98.5803521  30.8778040  16.2469594 102.4600110  23.8679030
  17.2012848 102.4284053  23.8008961  16.0482118 101.9990734  24.6829255
  16.8368977 101.0301226  26.4349827  17.6561866 101.5245305  26.4584664
  17.1105784 100.1133195  26.4067395  26.5935573  93.4211979  15.7977783
  25.7061428  93.7061629  15.5797977  27.0089562  93.2605742  14.9505060
  29.9450109  93.4458500  19.5132122  30.7210499  93.9354952  19.7856739
  29.2198243  93.8716554  19.9703991  32.3822668  94.1586119  20.5706063
  32.9767158  93.9181855  19.8599371  32.4549251  93.4393250  21.1979599
  26.5676597  98.9366515  16.0128073  26.5111798  99.3935066  15.1735705
  27.1204939  98.1757199  15.8350916  30.3781402  94.7256247  16.8378192
  30.1218337  94.3252882  17.6686400  29.7534270  95.4400041  16.7128332
  34.6893740  97.4652320  19.3449484  34.1293298  97.5345509  20.1181046
  34.0837244  97.2893304  18.6248980  27.3011376 100.1271296  13.3080602
  27.2460180  99.9615567  12.3669046  26.6757431 100.8347329  13.4642792
  12.0903891  95.3639360  27.1342024  12.7362754  94.8538314  27.6229249
  11.8821042  96.1008042  27.7085450  24.6157283 102.4320208  32.6334165
  25.4848443 102.6060860  32.2720800  24.1364034 103.2514625  32.5109894
  20.6107501  89.6279405  12.8865920  20.5986171  90.5721245  13.0434191
  21.5030923  89.4449550  12.5925382  24.4259621  86.2222182  17.1411857
  23.6592017  85.6680668  17.2868540  24.8370326  86.2944050  18.0026009
  16.4301382  92.5106977  31.2317038  17.2932843  92.1543782  31.4420363
  15.8566792  92.1720872  31.9192443  36.2749759 114.1408834  22.0379439
  36.9128169 114.0215581  21.3342780  36.1570602 115.0889678  22.0967392
  33.0839465 114.0936262  21.9740964  32.7457977 113.9777327  21.0861499
  33.9529233 113.6927427  21.9541970  35.8291027 111.8660288  19.1132648
  36.6154116 111.4479711  18.7623065  36.0929732 112.7706380  19.2814296
  41.2299454 111.8035521  20.0165626  41.9624626 111.2334738  20.2503456
  40.4738810 111.4157121  20.4572132  32.8475574 114.2262762  17.2128968
  32.4833781 113.6993383  17.9241890  33.7042690 113.8361231  17.0395454
  38.7524875 105.5157095  24.4760235  38.4208199 106.3852506  24.2521450
  38.1570488 105.1993379  25.1554265  38.6453538 110.2352181  21.5553585
  37.7370415 110.1667590  21.2612346  38.5941134 110.7124126  22.3835410
  32.7194404 111.6541827  29.4988482  31.9427738 112.2135747  29.4891347
  33.3584967 112.1398610  30.0203352  40.5115184 108.4368620  23.3331459
  39.8689565 108.7301153  22.6871253  40.0070113 108.3221540  24.1384655
  38.1655348 112.1831793  14.0217318  39.0773204 112.4159179  13.8465015
  37.6564995 112.7668837  13.4592396  32.8027186 111.5429027  25.0312167
  33.6488381 111.9668441  25.1746816  32.7425823 110.8862652  25.7250731
  35.9526631 109.2033396  26.6893341  35.7087563 109.9575456  26.1527617
  36.2286562 109.5818743  27.5240588  37.9065094 115.7472008  25.3670607
  38.1181989 116.3903768  24.6904988  37.8594842 114.9134325  24.8992537
  35.5091323 108.3589829  22.2707179  34.6475802 108.6571082  22.5623916
  35.5353757 108.5760228  21.3388211  29.7102140 111.6166928  29.8621759
  29.0800800 112.2983209  30.0957156  29.6038228 111.5050010  28.9174897
  47.1116915 114.9682712  19.8877935  46.3580623 114.3990110  19.7321940
  47.2464456 114.9345376  20.8348570  28.9882883 105.9187694  32.2247010
  28.5949828 105.3653893  32.8994654  29.8049023 106.2298273  32.6153528
  31.9050844 107.3345573  29.8167267  32.6460557 107.9352726  29.7371729
  32.1368766 106.5923211  29.2585309  35.8508007 103.3626676  24.0931548
  35.5072276 104.2528318  24.0170659  36.2186969 103.1728334  23.2301133
  33.4005400 108.1984988  17.6589222  32.5446997 107.8091838  17.4794860
  33.8132352 108.2776949  16.7989007  34.9304547 105.7331331  22.0580781
  34.4269342 105.6961466  21.2448587  35.2235154 106.6424074  22.1177438
  31.1747433 105.8170061  21.0646963  32.0400430 105.6212870  20.7052853
  31.2424942 105.5880413  21.9916320  40.7892563 116.1067642  14.5357157
  40.0122006 115.7678801  14.0912319  41.4684044 116.1120265  13.8612122
  35.6044592 111.2262379  14.4263765  35.2994728 111.5408528  15.2773908
  36.5575035 111.3043799  14.4691098  39.0283870 115.5801623  21.1923765
  38.3707545 116.2700885  21.2803893  39.8324269 115.9698055  21.5357751
  28.7809752 108.0472269  18.4363330  29.3553504 107.8247450  17.7036523
  29.3680734 108.1160963  19.1891931  37.8389329 113.9345996  19.2427707
  38.3521211 114.5675988  19.7449416  38.4890553 113.3347191  18.8771067
  31.0832420 104.9213518  17.1638399  30.4296832 104.6062535  16.5395014
  31.0412894 104.2989258  17.8898222  34.3170160 111.4095451  21.4886047
  33.3992721 111.6310398  21.3307735  34.7330304 111.4841762  20.6297754
  35.1005208 112.8086867  16.6188727  35.8477027 113.3208264  16.3095849
  35.3696797 112.4870920  17.4793121  37.5484045 109.8443983  18.6007517
  36.8106802 109.3321370  18.9317759  37.8010818 109.4044365  17.7890794
  37.6495672 102.6220235  19.1949286  37.9554549 101.7617599  18.9075201
  38.3748277 103.2137855  18.9948280  31.9216752 112.9174028  19.7025477
  31.9765362 111.9647865  19.6267954  31.1107954 113.0733467  20.1866775
  29.8609112 111.5351088  17.4615856  29.0476977 111.8345259  17.8681048
  30.3568106 111.1406777  18.1790338  35.4583324 111.9992913  26.2930750
  35.8132711 112.2264386  27.1525216  36.1055455 112.3311289  25.6708005
  41.1881060 115.1211348  16.9980079  41.0498959 115.3112944  16.0701268
  40.8317279 115.8830731  17.4548130  29.3523187 109.1069444  23.0777091
  29.9922566 108.9658203  22.3800054  28.5200717 108.8203957  22.7015693
  41.2150440 117.1887875  22.0091350  41.6486947 117.0963165  22.8574404
  41.9282021 117.1645376  21.3711366  27.8276728 110.4907526  25.0248902
  28.4999782 110.2824888  24.3761551  27.0006515 110.2929612  24.5854134
  33.7302300 107.1169467  27.0414563  33.0830215 107.8159416  26.9479039
  34.5003316 107.5505611  27.4090811  30.8586526 113.4770088  25.2735019
  31.5686145 112.8363280  25.2321637  30.8155834 113.7282983  26.1961200
  29.5715460 110.4635306  27.0930658  29.0352817 110.0126044  27.7452255
  28.9832169 110.5981215  26.3501123  25.3054581 109.5991314  24.1783653
  25.2212770 108.9916983  23.4434063  24.4837288 110.0900332  24.1793149
  35.4778295 108.0844877  19.5453848  35.9746995 107.3314840  19.2254918
  34.7065277 108.1209194  18.9797057  43.3308053 113.7885243  21.1872139
  43.3197929 114.6709958  20.8166073  42.4625432 113.4356794  20.9926677
  32.0613264 110.2262260  19.2725533  31.6911052 109.6733301  19.9606438
  32.5572357 109.6220394  18.7200533  39.9480627 112.6833884  17.6542306
  40.4141080 113.5161875  17.5802608  40.3988128 112.2178865  18.3587564
  37.9197290 105.0514471  21.6933207  37.0060370 105.2818698  21.8615414
  38.3490392 105.1352915  22.5447239  37.6903749 113.2404363  24.1933101
  37.0375199 113.4880270  23.5385554  38.0684129 112.4268501  23.8595578
  33.7391322 113.9824174  30.6799138  33.0631959 113.8818303  31.3501513
  34.5618956 113.8263387  31.1435135  27.4578598 107.6366251  25.5178639
  27.5219924 108.4981082  25.1056036  27.3945718 107.0240253  24.7850997
  26.9330870 109.7089384  29.1651673  27.5602909 109.3266461  29.7789197
  26.0758789 109.4903585  29.5307365  27.2390660 109.5921809  21.0797576
  26.5177246 110.2057777  20.9405050  28.0283916 110.1279574  21.0014222
  30.0416974 106.9276236  27.3538228  30.5651375 107.1738532  28.1164537
  29.8229307 107.7596271  26.9341365  31.2469519 107.8689931  25.0387899
  30.9066339 107.0697744  25.4408579  30.5408525 108.1691642  24.4664732
  31.8985990 104.9539243  23.4915222  32.7212060 104.4799721  23.3694112
  32.1424054 105.7329727  23.9913908  34.6825348 108.6872651  14.7236456
  34.8988962 109.5697289  14.4225284  34.2019415 108.2958864  13.9942098
  29.4224569 111.6458364  21.3007200  29.2769150 111.9598667  22.1931482
  28.9449773 112.2643264  20.7478099  31.2820952 108.6360912  21.3488090
  31.2682521 107.7402005  21.0120388  31.9993380 108.6431576  21.9826376
  33.1347083 109.0698252  23.3941217  32.8764861 109.9915323  23.3925548
  32.6032123 108.6728687  24.0841681  30.6857848 107.5175292  16.6175660
  30.8073759 106.5891938  16.8166547  30.3959890 107.5313978  15.7053975
  33.5549038 105.2030203  19.7542380  33.5770735 105.2669536  18.7994359
  33.9717097 104.3634711  19.9482886  43.9332663 114.9385462  17.7921602
  44.3763809 114.1892787  17.3940726  43.0559173 114.9295598  17.4095334
  30.1698928 109.0307290  30.8265593  30.2187083 109.9069412  30.4443362
  30.7121442 108.4884683  30.2537236  40.7751648 116.4240879  27.4199458
  40.8249653 116.2590887  28.3614981  40.6665572 115.5568138  27.0297339
  38.0655411 112.4071807  28.7358765  38.9665273 112.2678272  28.4442763
  38.1403385 112.5726262  29.6756942  32.3998216 109.7838662  27.5811951
  31.5301525 110.0772228  27.3094540  32.6357696 110.3679107  28.3019215
  43.4765527 116.4090700  20.1844050  44.3112419 116.8480504  20.3481610
  43.6124656 115.9329354  19.3652296  40.5257033 113.9670435  26.1321538
  41.0011155 114.1598082  25.3240389  39.6022599 114.0229621  25.8864921
  35.1037250 106.0018279  25.0977372  35.6219194 106.7379306  24.7723860
  34.7492383 106.3082272  25.9324131  35.3549844 102.4218561  20.6178268
  35.6351598 101.7541750  21.2438695  36.1400451 102.6147657  20.1052932
  39.2258702 110.8436195  24.3649843  40.1776125 110.9434293  24.3862067
  39.0562153 110.0514464  24.8747928  37.2473082 107.9291779  24.5509244
  36.6523014 108.2096791  23.8555733  36.9622778 108.4185680  25.3225985
  41.7046780 114.0642315  23.4792143  41.6723100 113.1258316  23.6651827
  42.3147404 114.1426352  22.7457968  41.8541269 110.8553358  23.5250426
  41.3380317 110.0711815  23.3380355  42.7381217 110.5272075  23.6896946
  39.5151996 104.5994374  19.4846239  39.3176817 104.2909462  20.3689571
  40.1251701 105.3256013  19.6144169  47.5223330 115.1258322  22.6198180
  48.2526718 114.8643610  23.1805883  46.9130275 114.3887044  22.6600248
  45.6038627 113.2666184  23.2172631  44.8771791 113.1322149  22.6089123
  45.1885914 113.5743013  24.0229349  33.3435094 105.4025234  15.6118474
  32.5335822 105.0572319  15.9873720  34.0319511 105.0932778  16.2006085
  35.2725642 104.4803281  17.2342770  35.8256681 104.8998734  17.8932793
  35.5095729 103.5539029  17.2765726  31.2958741 110.4690355  33.0145534
  31.1955468 111.4184712  32.9457625  31.0780283 110.1408593  32.1421604
  38.6504449 106.5903806  16.7421434  38.0703118 107.2488610  16.3599487
  38.3840382 105.7681151  16.3308852  37.1008016 105.9908864  18.9442755
  37.6007794 106.1025398  18.1357074  37.7443624 105.6869917  19.5843563
  37.4329327 108.7503896  15.7977783  36.5455182 109.0353547  15.5797977
  37.8483316 108.5897660  14.9505060  40.7843863 108.7750417  19.5132122
  41.5604253 109.2646870  19.7856739  40.0591998 109.2008472  19.9703991
  43.2216422 109.4878037  20.5706063  43.8160913 109.2473773  19.8599371
  43.2943006 108.7685167  21.1979599  37.4070351 114.2658432  16.0128073
  37.3505552 114.7226984  15.1735705  37.9598693 113.5049117  15.8350916
  41.2175157 110.0548164  16.8378192  40.9612091 109.6544800  17.6686400
  40.5928025 110.7691958  16.7128332  45.5287495 112.7944238  19.3449484
  44.9687053 112.8637427  20.1181046  44.9230998 112.6185222  18.6248980
  38.1405130 115.4563214  13.3080602  38.0853934 115.2907485  12.3669046
  37.5151186 116.1639247  13.4642792  31.4501256 104.9571323  12.8865920
  31.4379926 105.9013163  13.0434191  32.3424678 104.7741468  12.5925382
  35.2653375 101.5514099  17.1411857  34.4985771 100.9972586  17.2868540
  35.6764080 101.6235968  18.0026009  27.2695136 107.8398895  31.2317038
  28.1326598 107.4835700  31.4420363  26.6960547 107.5012790  31.9192443
  48.4889427 117.9512153  19.1949286  48.7948303 117.0909516  18.9075201
  49.2142031 118.5429773  18.9948280  46.1943598 117.7510479  20.6178268
  46.4745352 117.0833668  21.2438695  46.9794205 117.9439575  20.1052932
  50.3545750 119.9286292  19.4846239  50.1570571 119.6201380  20.3689571
  50.9645456 120.6547931  19.6144169  46.1047130 116.8806017  17.1411857
  45.3379526 116.3264504  17.2868540  46.5157835 116.9527886  18.0026009
   4.8143717  51.1338728  17.4950715   5.3583621  51.7468687  17.0005670
   4.2330561  51.6918307  18.0117728   8.1372511  50.5934782  16.8312036
   7.3468055  50.5758921  16.2916536   7.9005866  51.1323076  17.5861073
   2.9369775  48.7798495  19.3579471   3.8060935  48.9539147  18.9966106
   2.4576527  49.5992912  19.2355201  14.5962251  60.4887121   8.7624746
  15.2340661  60.3693868   8.0588086  14.4783094  61.4367965   8.8212698
  11.4051957  60.4414549   8.6986271  11.0670469  60.3255614   7.8106806
  12.2741725  60.0405714   8.6787277  11.8871740  61.5949401  14.6572476
  11.8760381  61.2002199  13.7852980  12.0492380  60.8615473  15.2506248
   8.6079001  64.3786513  13.6051660   8.3168867  65.2832144  13.4898327
   9.2435986  64.4203040  14.3195730   9.5335208  61.7563361  10.1953020
  10.1298781  61.5319384   9.4809983   9.5910180  61.0148107  10.7978468
  19.5511947  58.1513808   6.7410933  20.2837119  57.5813025   6.9748762
  18.7951302  57.7635409   7.1817438  17.0737367  51.8635382  11.2005541
  16.7420692  52.7330793  10.9766756  16.4782980  51.5471666  11.8799572
  13.5668886  64.0647928  10.6001454  13.2669610  64.9672967  10.4917261
  13.2219946  63.7980111  11.4522607  16.9666030  56.5830468   8.2798891
  16.0582908  56.5145877   7.9857652  16.9153626  57.0602413   9.1080717
  11.0406896  58.0020114  16.2233789  10.2640230  58.5614034  16.2136653
  11.6797459  58.4876897  16.7448659  18.8327677  54.7846907  10.0576765
  18.1902057  55.0779440   9.4116560  18.3282605  54.6699827  10.8629962
   9.2953268  60.8105567  15.7851756  10.0367953  61.3490611  15.5086579
   8.5890254  61.4371856  15.9423307  14.7708608  62.9534708  14.3823917
  15.1791964  62.5117118  13.6378549  14.0485870  62.3787335  14.6358110
  11.1239678  57.8907315  11.7557474  11.9700873  58.3146728  11.8992123
  11.0638316  57.2340939  12.4496037  15.0937423  63.5135898   8.1376206
  14.4646285  63.6781613   7.4352274  14.7063085  63.9277508   8.9087170
  18.9726655  64.4490336   5.4920570  18.2877693  64.8289238   4.9417603
  19.0570504  65.0585663   6.2252517  14.2739123  55.5511683  13.4138648
  14.0300055  56.3053743  12.8772923  14.5499054  55.9297031  14.2485895
  16.2277586  62.0950295  12.0915913  16.4394481  62.7382055  11.4150294
  16.1807334  61.2612612  11.6237843   7.5389466  62.7981788   8.3406054
   8.1090823  63.2269056   7.7023539   8.1297577  62.5164373   9.0390240
   8.0314632  57.9645215  16.5867066   7.4013293  58.6461496  16.8202462
   7.9250720  57.8528297  15.6420204  17.3423414  64.9722251  10.2638271
  18.1640858  64.5702438   9.9820952  17.3385817  64.8690485  11.2154386
  11.1080018  64.5206294  12.4198981  11.1724450  64.9826701  13.2557153
  10.3990941  63.8903659  12.5481291  25.4329407  61.3160999   6.6123242
  24.6793116  60.7468397   6.4567246  25.5676948  61.2823664   7.5593877
   7.3095375  52.2665981  18.9492317   6.9162320  51.7132180  19.6239961
   8.1261515  52.5776560  19.3398834  10.2263336  53.6823860  16.5412573
  10.9673049  54.2831014  16.4617036  10.4581259  52.9401498  15.9830616
   5.3704674  58.8680228  14.8190803   5.2558189  57.9665485  15.1197902
   4.5149192  59.1143924  14.4675619  12.4496512  66.8097968  16.4178304
  12.0060366  66.0234347  16.0999208  13.1113725  66.9977118  15.7522194
  14.5477750  67.0900768  14.4459705  14.5296225  67.9109649  13.9539974
  15.4697670  66.9654843  14.6709846  11.0050804  64.6044897  15.2883213
  11.5379141  63.8433186  15.0582521  10.4764885  64.3118549  16.0307368
  17.3496363  61.9279910   7.9169071  16.6920037  62.6179172   8.0049200
  18.1536762  62.3176342   8.2603058  16.1601821  60.2824283   5.9673013
  16.6733703  60.9154275   6.4694723  16.8103045  59.6825479   5.6016373
  16.9263618  65.2630285   4.0952156  16.4725945  64.4221194   4.1517346
  16.2957584  65.8991683   4.4326936  15.3696557  67.1006781   5.0301974
  15.6619531  67.6611838   4.3114340  15.8795177  67.3935342   5.7855133
  13.7795816  58.3471200  13.0176056  14.1345204  58.5742673  13.8770522
  14.4267947  58.6789577  12.3953312  19.5362932  63.5366163   8.7336657
  19.9699439  63.4441452   9.5819711  20.2494513  63.5123663   8.0956673
  13.2690827  67.1368257  10.2669758  13.3227850  67.7059193  11.0347473
  12.4005609  67.3070142   9.9023795  20.3978482  63.5789863  11.2669542
  20.5914372  64.4835674  11.5128817  20.2979100  63.1197282  12.1008127
  12.0514793  53.4647754  13.7659870  11.4042708  54.1637704  13.6724346
  12.8215808  53.8983898  14.1336118  15.4593591  63.7296606  16.8410423
  15.3079097  63.5007158  15.9240507  15.4498270  64.6867208  16.8541768
  12.2278927  61.3028519  11.8256689  13.1570987  61.4539678  11.6525657
  11.8069957  61.3912540  10.9705336  11.0267259  65.3279183   9.5955227
  10.8878344  64.9597968  10.4681165  10.2381855  65.8426823   9.4239185
  12.5772474  64.7060786   6.9844065  12.2422307  64.6661556   7.8801715
  12.0776420  64.0405502   6.5114475   6.5516718  60.1128416  12.5096646
   6.4136516  59.3808655  13.1108185   7.4621641  60.0237316  12.2280834
   9.1799019  59.8248375  11.9980326   9.8898637  59.1841568  11.9566944
   9.1368327  60.0761270  12.9206506  17.1685797  66.7615729  14.9186905
  17.1098343  66.0774949  14.2517488  17.5705316  67.5034719  14.4667531
   7.8927953  56.8113593  13.8175965   7.3565310  56.3604332  14.4697561
   7.3044661  56.9459502  13.0746429  17.1703204  64.7255313  13.1500884
  16.2829983  64.3881234  13.2727283  17.7401756  63.9938344  13.3869650
  10.7004358  69.3856765  10.1162128  10.6274529  70.1911736  10.6281432
  10.2581751  69.5848731   9.2910149  21.6520545  60.1363530   7.9117446
  21.6410421  61.0188245   7.5411379  20.7837924  59.7835081   7.7171983
  13.1603041  69.2843599  12.2720286  13.8731014  69.9191064  12.1996188
  12.6693070  69.3807465  11.4560288   8.2114955  67.0338042  13.0925857
   8.9124414  67.6674525  13.2455251   7.7410070  67.3752774  12.3321496
  16.0116241  59.5882650  10.9178408  15.3587691  59.8358557  10.2630860
  16.3896621  58.7746788  10.5840885  12.0603814  60.3302461  17.4044445
  11.3844451  60.2296590  18.0746820  12.8831448  60.1741675  17.8680442
  10.8026597  71.6369388  11.6402061  11.3544905  71.8001010  12.4051146
  11.1432790  72.2273826  10.9682085   5.2543363  56.0567671  15.8896980
   5.8815401  55.6744748  16.5034504   4.3971281  55.8381873  16.2552672
  15.6537471  66.4630646  17.4950715  16.1977375  67.0760604  17.0005670
  15.0724316  67.0210224  18.0117728  13.9394984  69.5851364   8.6265743
  13.8146124  68.7841104   8.1176688  14.5974075  70.0797557   8.1379713
  16.0029892  67.3860384  10.2545293  15.0560228  67.2665735  10.1823620
  16.3512666  66.4982882  10.3371554   8.3629466  53.2754523  14.0783535
   8.8863868  53.5216819  14.8409844   8.1441799  54.1074558  13.6586672
  13.0076326  67.1813100   6.4549645  12.8601288  66.2529808   6.6357215
  13.8329819  67.2033191   5.9706720  16.6110448  68.0041659   7.5414518
  17.5356995  67.7984520   7.4038969  16.4425751  67.7558060   8.4503859
  11.4559575  55.4176539  10.1186524  11.1977353  56.3393610  10.1170854
  10.9244615  55.0206974  10.8086988   2.2182724  60.5341996  10.9640168
   1.6736192  61.3101803  11.0960442   3.0962073  60.8812800  10.8059290
  22.2545155  61.2863749   4.5166909  22.6976301  60.5371075   4.1186032
  21.3771665  61.2773886   4.1340641   3.0048745  59.6611892  13.8570325
   2.2630482  59.8094527  14.4434955   2.6841490  59.9220157  12.9937074
  10.9492408  69.2027870  13.6550715  11.2579535  68.9577017  14.5273415
  11.7467890  69.4074508  13.1669585   8.4911420  55.3785577  17.5510899
   8.5399575  56.2547700  17.1688669   9.0333934  54.8362970  16.9782542
  18.9766265  65.9226700  16.8312036  18.1861809  65.9050839  16.2916536
  18.7399620  66.4614994  17.5861073  19.0964141  62.7719166  14.1444765
  19.1462145  62.6069174  15.0860288  18.9878064  61.9046425  13.7542646
  16.3867903  58.7550094  15.4604072  17.2877766  58.6156559  15.1688069
  16.4615877  58.9204549  16.4002249  10.7210708  56.1316949  14.3057258
   9.8514018  56.4250515  14.0339846  10.9570189  56.7157394  15.0264521
  20.5982337  65.1916108  14.3886786  20.3067146  65.5546088  15.2250247
  19.9854469  64.4783116  14.2100118  21.7978020  62.7568988   6.9089357
  22.6324911  63.1958792   7.0726917  21.9337148  62.2807641   6.0897602
  18.8469526  60.3148723  12.8566844  19.3223647  60.5076369  12.0485696
  17.9235091  60.3707908  12.6110228  13.4249742  52.3496566  11.8222678
  13.9431686  53.0857593  11.4969167  13.0704875  52.6560559  12.6569437
  17.5471195  57.1914483  11.0895150  18.4988617  57.2912580  11.1107374
  17.3774645  56.3992751  11.5993234  15.5685574  54.2770066  11.2754551
  14.9735506  54.5575079  10.5801039  15.2835271  54.7663967  12.0471292
  20.0259272  60.4120602  10.2037450  19.9935592  59.4736603  10.3897133
  20.6359896  60.4904639   9.4703274  20.1753761  57.2031646  10.2495733
  19.6592810  56.4190102  10.0625662  21.0593709  56.8750362  10.4142252
  25.8435822  61.4736609   9.3443486  26.5739211  61.2121897   9.9051190
  25.2342768  60.7365331   9.3845554  23.9251119  59.6144472   9.9417938
  23.1984283  59.4800437   9.3334429  23.5098406  59.9221300  10.7474656
  11.7481296  63.3334401  17.7065311  12.6684305  63.5113000  17.9005357
  11.7130879  62.3890447  17.5545010   4.7443368  61.2435436  10.3488092
   4.9629378  62.1752544  10.3676126   5.1569142  60.8843410  11.1342896
   9.6171234  56.8168642  19.7390841   9.5167961  57.7662999  19.6702932
   9.3992776  56.4886881  18.8666911   9.4802504  60.2465781  18.5555902
   8.9969585  61.0466141  18.7619791   9.5663443  60.2573726  17.6023346
   5.4075841  64.1370315  10.5924336   6.3619095  64.1054258  10.5254268
   5.2088365  63.6760939  11.4074562   5.9975223  62.7071431  13.1595134
   6.8168112  63.2015510  13.1829971   6.2712031  61.7903400  13.1312701
  21.5428914  55.8356324   7.2951369  22.1373405  55.5952060   6.5844677
  21.6155498  55.1163454   7.9224905  23.8499987  59.1422525   6.0694790
  23.2899545  59.2115714   6.8426352  23.2443490  58.9663509   5.3494287
   1.2510138  57.0409565  13.8587331   1.8969001  56.5308519  14.3474556
   1.0427289  57.7778247  14.4330756  13.7763530  64.1090413  19.3579471
  14.6454689  64.2831065  18.9966106  13.2970281  64.9284830  19.2355201
   5.5907629  54.1877182  17.9562345   6.4539090  53.8313987  18.1665670
   5.0173039  53.8491077  18.6437749  25.4356005  75.8179039   8.7624746
  26.0734415  75.6985786   8.0588086  25.3176848  76.7659883   8.8212698
  22.2445712  75.7706467   8.6986271  21.9064223  75.6547532   7.8106806
  23.1135480  75.3697632   8.6787277  22.7265495  76.9241319  14.6572476
  22.7154136  76.5294117  13.7852980  22.8886134  76.1907391  15.2506248
  19.4472756  79.7078430  13.6051660  19.1562622  80.6124061  13.4898327
  20.0829740  79.7494958  14.3195730  20.3728963  77.0855279  10.1953020
  20.9692535  76.8611301   9.4809983  20.4303934  76.3440024  10.7978468
  24.9897274  73.5430493   5.8377954  25.7760363  73.1249916   5.4868371
  25.2535978  74.4476585   6.0059603  30.3905701  73.4805726   6.7410933
  31.1230873  72.9104943   6.9748762  29.6345057  73.0927326   7.1817438
  22.0081821  75.9032967   3.9374275  21.6440028  75.3763588   4.6487197
  22.8648937  75.5131436   3.7640761  27.9131121  67.1927300  11.2005541
  27.5814446  68.0622711  10.9766756  27.3176735  66.8763584  11.8799572
  24.4062641  79.3939846  10.6001454  24.1063364  80.2964885  10.4917261
  24.0613701  79.1272029  11.4522607  17.8575122  75.8453643   6.6338158
  16.9325619  75.7129857   6.8415850  18.1059536  76.6247862   7.1308101
  27.8059785  71.9122386   8.2798891  26.8976662  71.8437794   7.9857652
  27.7547381  72.3894331   9.1080717  21.8800651  73.3312032  16.2233789
  21.1033985  73.8905952  16.2136653  22.5191214  73.8168815  16.7448659
  29.6721431  70.1138824  10.0576765  29.0295811  70.4071358   9.4116560
  29.1676360  69.9991745  10.8629962  27.3261595  73.8601998   0.7462625
  28.2379451  74.0929384   0.5710322  26.8171242  74.4439042   0.1837703
  20.1347023  76.1397485  15.7851756  20.8761707  76.6782529  15.5086579
  19.4284008  76.7663774  15.9423307  25.6102363  78.2826625  14.3823917
  26.0185719  77.8409036  13.6378549  24.8879624  77.7079253  14.6358110
  21.9633433  73.2199232  11.7557474  22.8094628  73.6438646  11.8992123
  21.9032070  72.5632857  12.4496037  25.9331177  78.8427816   8.1376206
  25.3040040  79.0073530   7.4352274  25.5456839  79.2569426   8.9087170
  29.8120409  79.7782254   5.4920570  29.1271447  80.1581155   4.9417603
  29.8964258  80.3877581   6.2252517  25.1132878  70.8803601  13.4138648
  24.8693810  71.6345661  12.8772923  25.3892808  71.2588948  14.2485895
  27.0671341  77.4242213  12.0915913  27.2788236  78.0673973  11.4150294
  27.0201089  76.5904530  11.6237843  24.6697570  70.0360034   8.9952485
  23.8082049  70.3341287   9.2869223  24.6960004  70.2530432   8.0633518
  21.4859139  78.5802224   5.4026291  21.9497485  78.8589927   4.6130914
  21.2215937  77.6785669   5.2199382  18.3783220  78.1273706   8.3406054
  18.9484577  78.5560974   7.7023539  18.9691332  77.8456290   9.0390240
  18.8708387  73.2937133  16.5867066  18.2407047  73.9753414  16.8202462
  18.7644474  73.1820215  15.6420204  28.1817169  80.3014168  10.2638271
  29.0034612  79.8994356   9.9820952  28.1779571  80.1982403  11.2154386
  21.9473772  79.8498212  12.4198981  22.0118205  80.3118619  13.2557153
  21.2384696  79.2195577  12.5481291  12.4491062  73.2139420   9.9447981
  12.6999100  74.0986430  10.2105557  12.9850610  73.0344021   9.1723072
  36.2723162  76.6452917   6.6123242  35.5186870  76.0760315   6.4567246
  36.4070703  76.6115581   7.5593877  18.1489129  67.5957899  18.9492317
  17.7556075  67.0424098  19.6239961  18.9655270  67.9068477  19.3398834
  21.0657090  69.0115778  16.5412573  21.8066804  69.6122931  16.4617036
  21.2975013  68.2693416  15.9830616  16.2098428  74.1972145  14.8190803
  16.0951943  73.2957403  15.1197902  15.3542946  74.4435842  14.4675619
  23.2890266  82.1389886  16.4178304  22.8454120  81.3526264  16.0999208
  23.9507480  82.3269036  15.7522194  25.3871504  82.4192686  14.4459705
  25.3689979  83.2401567  13.9539974  26.3091424  82.2946761  14.6709846
  21.8444558  79.9336815  15.2883213  22.3772895  79.1725103  15.0582521
  21.3158639  79.6410467  16.0307368  25.0114253  65.0396881  10.8176855
  24.6678523  65.9298523  10.7415965  25.3793216  64.8498539   9.9546440
  22.5611647  69.8755193   4.3834528  21.7053243  69.4862043   4.2040167
  22.9738599  69.9547154   3.5234314  24.0910794  67.4101536   8.7826088
  23.5875589  67.3731671   7.9693893  24.3841401  68.3194279   8.8422745
  20.3353680  67.4940266   7.7892270  21.2006676  67.2983075   7.4298159
  20.4031188  67.2650618   8.7161627  29.9498810  77.7837847   1.2602463
  29.1728253  77.4449006   0.8157626  30.6290291  77.7890470   0.5857429
  24.7650839  72.9032584   1.1509071  24.4600975  73.2178733   2.0019214
  25.7181281  72.9814004   1.1936404  28.1890117  77.2571828   7.9169071
  27.5313791  77.9471089   8.0049200  28.9930516  77.6468260   8.2603058
  17.9415999  69.7242474   5.1608637  18.5159751  69.5017655   4.4281830
  18.5286981  69.7931168   5.9137238  26.9995576  75.6116201   5.9673013
  27.5127458  76.2446193   6.4694723  27.6496800  75.0117396   5.6016373
  20.2438666  66.5983723   3.8883706  19.5903079  66.2832740   3.2640321
  20.2019140  65.9759463   4.6143529  23.4776407  73.0865656   8.2131354
  22.5598968  73.3080603   8.0553042  23.8936550  73.1611967   7.3543061
  24.2611454  74.4857072   3.3434034  25.0083273  74.9978469   3.0341156
  24.5303044  74.1641125   4.2038428  27.7657372  80.5922202   4.0952156
  27.3119699  79.7513112   4.1517346  27.1351339  81.2283601   4.4326936
  26.7090292  71.5214188   5.3252823  25.9713048  71.0091574   5.6563066
  26.9617065  71.0814570   4.5136100  26.2090311  82.4298699   5.0301974
  26.5013286  82.9903756   4.3114340  26.7188932  82.7227260   5.7855133
  26.8101919  64.2990440   5.9194593  27.1160796  63.4387804   5.6320508
  27.5354524  64.8908060   5.7193586  21.0822999  74.5944233   6.4270784
  21.1371608  73.6418070   6.3513260  20.2714201  74.7503672   6.9112082
  19.0215359  73.2121293   4.1861163  18.2083224  73.5115464   4.5926355
  19.5174353  72.8176982   4.9035645  24.6189570  73.6763118  13.0176056
  24.9738958  73.9034591  13.8770522  25.2661701  74.0081494  12.3953312
  30.3487307  76.7981553   3.7225385  30.2105206  76.9883149   2.7946575
  29.9923526  77.5600936   4.1793437  18.5129433  70.7839649   9.8022397
  19.1528813  70.6428408   9.1045361  17.6806964  70.4974162   9.4260999
  30.3756687  78.8658080   8.7336657  30.8093193  78.7733369   9.5819711
  31.0888268  78.8415581   8.0956673  24.1084582  82.4660175  10.2669758
  24.1621604  83.0351111  11.0347473  23.2399363  82.6362060   9.9023795
  16.9882975  72.1677731  11.7494209  17.6606029  71.9595093  11.1006858
  16.1612762  71.9699817  11.3099441  31.2372236  78.9081781  11.2669542
  31.4308126  79.8127592  11.5128817  31.1372855  78.4489200  12.1008127
  22.8908547  68.7939672  13.7659870  22.2436462  69.4929621  13.6724346
  23.6609563  69.2275816  14.1336118  26.2987345  79.0588524  16.8410423
  26.1472851  78.8299075  15.9240507  26.2892025  80.0159125  16.8541768
  23.0672681  76.6320437  11.8256689  23.9964741  76.7831596  11.6525657
  22.6463711  76.7204457  10.9705336  21.8661013  80.6571101   9.5955227
  21.7272099  80.2889885  10.4681165  21.0775609  81.1718740   9.4239185
  23.4166228  80.0352704   6.9844065  23.0816061  79.9953474   7.8801715
  22.9170174  79.3697420   6.5114475  17.3910472  75.4420334  12.5096646
  17.2530270  74.7100573  13.1108185  18.3015396  75.3529234  12.2280834
  20.0192773  75.1540293  11.9980326  20.7292392  74.5133485  11.9566944
  19.9762081  75.4053188  12.9206506  28.0079552  82.0907646  14.9186905
  27.9492098  81.4066866  14.2517488  28.4099070  82.8326636  14.4667531
  18.7321707  72.1405511  13.8175965  18.1959064  71.6896249  14.4697561
  18.1438415  72.2751420  13.0746429  28.0096959  80.0547230  13.1500884
  27.1223738  79.7173152  13.2727283  28.5795510  79.3230262  13.3869650
  14.4660828  71.2761519  10.9028960  14.3819017  70.6687188  10.1679370
  13.6443535  71.7670537  10.9038456  21.5398112  84.7148683  10.1162128
  21.4668284  85.5203654  10.6281432  21.0975505  84.9140648   9.2910149
  24.6384542  69.7615082   6.2699155  25.1353242  69.0085044   5.9500225
  23.8671524  69.7979399   5.7042364  32.4914300  75.4655448   7.9117446
  32.4804176  76.3480163   7.5411379  31.6231679  75.1126998   7.7171983
  23.9996796  84.6135517  12.2720286  24.7124768  85.2482981  12.1996188
  23.5086825  84.7099383  11.4560288  25.7214323  78.5186769   3.8437578
  24.7870602  78.6388232   3.6742282  25.8990991  77.6159236   3.5797588
  21.2219511  71.9032465   5.9970839  20.8517298  71.3503505   6.6851745
  21.7178603  71.2990599   5.4445839  29.1086874  74.3604089   4.3787612
  29.5747326  75.1932080   4.3047915  29.5594375  73.8949070   5.0832871
  19.0508709  82.3629960  13.0925857  19.7518169  82.9966443  13.2455251
  18.5803824  82.7044692  12.3321496  27.0803537  66.7284676   8.4178513
  26.1666617  66.9588902   8.5860720  27.5096638  66.8123120   9.2692546
  26.8509995  74.9174568  10.9178408  26.1981446  75.1650475  10.2630860
  27.2290375  74.1038706  10.5840885  22.8997568  75.6594379  17.4044445
  22.2238205  75.5588508  18.0746820  23.7225202  75.5033592  17.8680442
  21.6420351  86.9661306  11.6402061  22.1938659  87.1292928  12.4051146
  21.9826545  87.5565744  10.9682085  16.6184845  69.3136456  12.2423945
  16.6826171  70.1751287  11.8301343  16.5551965  68.7010458  11.5096304
  16.0937117  71.3859588  15.8896980  16.7209156  71.0036666  16.5034504
  15.2365036  71.1673790  16.2552672  26.4931226  81.7922564  17.4950715
  27.0371130  82.4052522  17.0005670  25.9118070  82.3502142  18.0117728
  24.7788739  84.9143282   8.6265743  24.6539878  84.1133021   8.1176688
  25.4367830  85.4089475   8.1379713  16.3996907  71.2692014   7.8042883
  15.6783493  71.8827982   7.6650356  17.1890163  71.8049779   7.7259529
  26.8423647  82.7152302  10.2545293  25.8953982  82.5957653  10.1823620
  27.1906420  81.8274800  10.3371554  19.2023220  68.6046441  14.0783535
  19.7257622  68.8508737  14.8409844  18.9835554  69.4366475  13.6586672
  23.8470080  82.5105018   6.4549645  23.6995043  81.5821725   6.6357215
  24.6723574  82.5325109   5.9706720  27.4504202  83.3333577   7.5414518
  28.3750750  83.1276438   7.4038969  27.2819505  83.0849978   8.4503859
  20.4075765  69.5460136  11.7633205  20.0672586  68.7467949  12.1653885
  19.7014772  69.8461847  11.1910038  21.0592237  66.6309448  10.2160528
  21.8818307  66.1569926  10.0939419  21.3030301  67.4099932  10.7159215
  23.8431595  70.3642856   1.4481762  24.0595209  71.2467493   1.1470590
  23.3625662  69.9729069   0.7187404  18.5830816  73.3228569   8.0252507
  18.4375397  73.6368872   8.9176788  18.1056020  73.9413469   7.4723406
  20.4427199  70.3131117   8.0733396  20.4288768  69.4172210   7.7365694
  21.1599627  70.3201781   8.7071683  22.2953330  70.7468457  10.1186524
  22.0371107  71.6685528  10.1170854  21.7638370  70.3498892  10.8086988
  13.0576478  75.8633913  10.9640168  12.5129946  76.6393721  11.0960442
  13.9355828  76.2104718  10.8059290  19.8464095  69.1945497   3.3420967
  19.9680006  68.2662143   3.5411854  19.5566137  69.2084183   2.4299282
  22.7155285  66.8800407   6.4787686  22.7376982  66.9439741   5.5239666
  23.1323344  66.0404916   6.6728193  33.0938909  76.6155667   4.5166909
  33.5370056  75.8662992   4.1186032  32.2165420  76.6065803   4.1340641
  13.8442500  74.9903809  13.8570325  13.1024236  75.1386445  14.4434955
  13.5235244  75.2512075  12.9937074  30.1266114  80.6185714   1.5260838
  30.6517438  80.9572987   0.8010158  30.0388466  79.6832729   1.3423973
  21.7886163  84.5319788  13.6550715  22.0973289  84.2868934  14.5273415
  22.5861645  84.7366426  13.1669585  19.3305174  70.7077494  17.5510899
  19.3793330  71.5839617  17.1688669  19.8727689  70.1654887  16.9782542
  29.8160020  81.2518618  16.8312036  29.0255564  81.2342757  16.2916536
  29.5793375  81.7906911  17.5861073  29.9357895  78.1011084  14.1444765
  29.9855900  77.9361091  15.0860288  29.8271818  77.2338343  13.7542646
  27.2261657  74.0842012  15.4604072  28.1271520  73.9448477  15.1688069
  27.3009632  74.2496467  16.4002249  21.5604463  71.4608867  14.3057258
  20.6907772  71.7542433  14.0339846  21.7963943  72.0449312  15.0264521
  31.4376092  80.5208026  14.3886786  31.1460900  80.8838006  15.2250247
  30.8248223  79.8075034  14.2100118  32.6371774  78.0860905   6.9089357
  33.4718666  78.5250709   7.0726917  32.7730903  77.6099559   6.0897602
  29.6863280  75.6440640  12.8566844  30.1617402  75.8368287  12.0485696
  28.7628845  75.6999826  12.6110228  24.2643497  67.6788484  11.8222678
  24.7825440  68.4149511  11.4969167  23.9098629  67.9852477  12.6569437
  24.5156091  64.0988766   7.3423575  24.7957845  63.4311955   7.9684001
  25.3006698  64.2917862   6.8298239  28.3864949  72.5206400  11.0895150
  29.3382372  72.6204498  11.1107374  28.2168400  71.7284669  11.5993234
  26.4079329  69.6061983  11.2754551  25.8129261  69.8866996  10.5801039
  26.1229025  70.0955884  12.0471292  30.8653027  75.7412520  10.2037450
  30.8329347  74.8028521  10.3897133  31.4753651  75.8196557   9.4703274
  31.0147515  72.5323563  10.2495733  30.4986564  71.7482020  10.0625662
  31.8987464  72.2042280  10.4142252  28.6758242  66.2764579   6.2091545
  28.4783063  65.9679667   7.0934877  29.2857948  67.0026218   6.3389475
  36.6829577  76.8028527   9.3443486  37.4132965  76.5413815   9.9051190
  36.0736522  76.0657249   9.3845554  34.7644874  74.9436389   9.9417938
  34.0378037  74.8092354   9.3334429  34.3492161  75.2513218  10.7474656
  22.5875050  78.6626319  17.7065311  23.5078060  78.8404918  17.9005357
  22.5524633  77.7182364  17.5545010  15.5837123  76.5727354  10.3488092
  15.8023133  77.5044462  10.3676126  15.9962897  76.2135328  11.1342896
  22.5041341  67.0795439   2.3363780  21.6942069  66.7342524   2.7119026
  23.1925758  66.7702983   2.9251392  24.4331889  66.1573486   3.9588077
  24.9862928  66.5768939   4.6178100  24.6701975  65.2309234   4.0011033
  20.4564988  72.1460559  19.7390841  20.3561715  73.0954916  19.6702932
  20.2386530  71.8178798  18.8666911  27.8110696  68.2674011   3.4666741
  27.2309365  68.9258815   3.0844793  27.5446629  67.4451356   3.0554159
  26.2614262  67.6679069   5.6688061  26.7614041  67.7795603   4.8602380
  26.9049870  67.3640122   6.3088870  20.3196258  75.5757698  18.5555902
  19.8363340  76.3758058  18.7619791  20.4057197  75.5865643  17.6023346
  16.2469596  79.4662233  10.5924336  17.2012849  79.4346175  10.5254268
  16.0482119  79.0052857  11.4074562  16.8368978  78.0363349  13.1595134
  17.6561867  78.5307428  13.1829971  17.1105786  77.1195317  13.1312701
  26.5935574  70.4274101   2.5223089  25.7061429  70.7123752   2.3043284
  27.0089563  70.2667865   1.6750366  29.9450110  70.4520622   6.2377429
  30.7210500  70.9417075   6.5102045  29.2198244  70.8778677   6.6949298
  32.3822669  71.1648242   7.2951369  32.9767160  70.9243978   6.5844677
  32.4549252  70.4455372   7.9224905  26.5676598  75.9428637   2.7373379
  26.5111799  76.3997189   1.8981012  27.1204940  75.1819322   2.5596222
  30.3781404  71.7318369   3.5623499  30.1218338  71.3315005   4.3931707
  29.7534272  72.4462163   3.4373638  34.6893742  74.4714442   6.0694790
  34.1293300  74.5407632   6.8426352  34.0837245  74.2955427   5.3494287
  27.3011377  77.1333419   0.0325909  27.2460181  76.9677690  -0.9085647
  26.6757432  77.8409451   0.1888098  12.0903892  72.3701483  13.8587331
  12.7362756  71.8600437  14.3474556  11.8821043  73.1070165  14.4330756
  24.6157284  79.4382330  19.3579471  25.4848444  79.6122983  18.9966106
  24.1364036  80.2576747  19.2355201  24.4259622  63.2284304   3.8657164
  23.6592018  62.6742791   4.0113846  24.8370327  63.3006173   4.7271315
  16.4301383  69.5169100  17.9562345  17.2932845  69.1605905  18.1665670
  15.8566794  69.1782995  18.6437749  36.2749760  91.1470956   8.7624746
  36.9128170  91.0277704   8.0588086  36.1570603  92.0951800   8.8212698
  33.0839466  91.0998384   8.6986271  32.7457978  90.9839449   7.8106806
  33.9529234  90.6989550   8.6787277  33.5659249  92.2533236  14.6572476
  33.5547890  91.8586034  13.7852980  33.7279889  91.5199309  15.2506248
  30.2866510  95.0370348  13.6051660  29.9956376  95.9415979  13.4898327
  30.9223495  95.0786876  14.3195730  31.2122717  92.4147197  10.1953020
  31.8086289  92.1903219   9.4809983  31.2697689  91.6731942  10.7978468
  35.8291028  88.8722410   5.8377954  36.6154118  88.4541833   5.4868371
  36.0929733  89.7768502   6.0059603  41.2299456  88.8097643   6.7410933
  41.9624628  88.2396860   6.9748762  40.4738811  88.4219244   7.1817438
  32.8475575  91.2324885   3.9374275  32.4833783  90.7055506   4.6487197
  33.7042691  90.8423354   3.7640761  38.7524876  82.5219218  11.2005541
  38.4208201  83.3914628  10.9766756  38.1570489  82.2055502  11.8799572
  35.2456395  94.7231764  10.6001454  34.9457119  95.6256802  10.4917261
  34.9007455  94.4563947  11.4522607  28.6968877  91.1745560   6.6338158
  27.7719373  91.0421774   6.8415850  28.9453290  91.9539780   7.1308101
  38.6453539  87.2414304   8.2798891  37.7370417  87.1729712   7.9857652
  38.5941135  87.7186249   9.1080717  32.7194405  88.6603949  16.2233789
  31.9427739  89.2197869  16.2136653  33.3584968  89.1460732  16.7448659
  40.5115186  85.4430742  10.0576765  39.8689566  85.7363275   9.4116560
  40.0070114  85.3283662  10.8629962  38.1655349  89.1893915   0.7462625
  39.0773205  89.4221302   0.5710322  37.6564996  89.7730960   0.1837703
  30.9740777  91.4689403  15.7851756  31.7155462  92.0074447  15.5086579
  30.2677763  92.0955691  15.9423307  36.4496117  93.6118543  14.3823917
  36.8579473  93.1700954  13.6378549  35.7273378  93.0371171  14.6358110
  32.8027187  88.5491150  11.7557474  33.6488382  88.9730563  11.8992123
  32.7425825  87.8924774  12.4496037  36.7724932  94.1719734   8.1376206
  36.1433794  94.3365448   7.4352274  36.3850594  94.5861343   8.9087170
  40.6514164  95.1074172   5.4920570  39.9665202  95.4873073   4.9417603
  40.7358013  95.7169498   6.2252517  35.9526632  86.2095518  13.4138648
  35.7087564  86.9637579  12.8772923  36.2286563  86.5880866  14.2485895
  37.9065095  92.7534131  12.0915913  38.1181990  93.3965891  11.4150294
  37.8594843  91.9196447  11.6237843  35.5091324  85.3651951   8.9952485
  34.6475803  85.6633205   9.2869223  35.5353759  85.5822350   8.0633518
  32.3252894  93.9094142   5.4026291  32.7891239  94.1881845   4.6130914
  32.0609692  93.0077586   5.2199382  29.2176975  93.4565623   8.3406054
  29.7878332  93.8852892   7.7023539  29.8085086  93.1748208   9.0390240
  29.7102141  88.6229051  16.5867066  29.0800802  89.3045332  16.8202462
  29.6038229  88.5112132  15.6420204  39.0210923  95.6306086  10.2638271
  39.8428367  95.2286273   9.9820952  39.0173326  95.5274320  11.2154386
  32.7867527  95.1790129  12.4198981  32.8511959  95.6410537  13.2557153
  32.0778450  94.5487494  12.5481291  23.2884817  88.5431337   9.9447981
  23.5392855  89.4278347  10.2105557  23.8244365  88.3635939   9.1723072
  47.1116916  91.9744835   6.6123242  46.3580625  91.4052233   6.4567246
  47.2464457  91.9407499   7.5593877  28.9882884  82.9249817  18.9492317
  28.5949829  82.3716015  19.6239961  29.8049024  83.2360395  19.3398834
  31.9050845  84.3407696  16.5412573  32.6460558  84.9414849  16.4617036
  32.1368768  83.5985334  15.9830616  27.0492183  89.5264063  14.8190803
  26.9345698  88.6249320  15.1197902  26.1936701  89.7727760  14.4675619
  34.1284021  97.4681803  16.4178304  33.6847875  96.6818182  16.0999208
  34.7901234  97.6560954  15.7522194  36.2265259  97.7484603  14.4459705
  36.2083734  98.5693484  13.9539974  37.1485179  97.6238678  14.6709846
  32.6838313  95.2628733  15.2883213  33.2166650  94.5017021  15.0582521
  32.1552394  94.9702385  16.0307368  35.8508008  80.3688799  10.8176855
  35.5072277  81.2590440  10.7415965  36.2186970  80.1790456   9.9546440
  33.4005402  85.2047111   4.3834528  32.5446998  84.8153961   4.2040167
  33.8132353  85.2839071   3.5234314  34.9304548  82.7393454   8.7826088
  34.4269344  82.7023589   7.9693893  35.2235155  83.6486197   8.8422745
  31.1747434  82.8232184   7.7892270  32.0400431  82.6274992   7.4298159
  31.2424943  82.5942535   8.7161627  40.7892565  93.1129764   1.2602463
  40.0122007  92.7740924   0.8157626  41.4684046  93.1182388   0.5857429
  35.6044594  88.2324502   1.1509071  35.2994729  88.5470651   2.0019214
  36.5575036  88.3105922   1.1936404  39.0283872  92.5863746   7.9169071
  38.3707546  93.2763007   8.0049200  39.8324271  92.9760178   8.2603058
  28.7809753  85.0534392   5.1608637  29.3553505  84.8309573   4.4281830
  29.3680736  85.1223086   5.9137238  37.8389330  90.9408118   5.9673013
  38.3521212  91.5738110   6.4694723  38.4890554  90.3409314   5.6016373
  31.0832421  81.9275640   3.8883706  30.4296833  81.6124658   3.2640321
  31.0412895  81.3051381   4.6143529  34.3170161  88.4157574   8.2131354
  33.3992723  88.6372521   8.0553042  34.7330305  88.4903884   7.3543061
  35.1005209  89.8148990   3.3434034  35.8477028  90.3270387   3.0341156
  35.3696798  89.4933042   4.2038428  38.6051127  95.9214120   4.0952156
  38.1513454  95.0805030   4.1517346  37.9745093  96.5575518   4.4326936
  37.5484046  86.8506106   5.3252823  36.8106803  86.3383492   5.6563066
  37.8010820  86.4106487   4.5136100  37.0484066  97.7590617   5.0301974
  37.3407040  98.3195674   4.3114340  37.5582686  98.0519178   5.7855133
  37.6495673  79.6282358   5.9194593  37.9554550  78.7679721   5.6320508
  38.3748278  80.2199978   5.7193586  31.9216753  89.9236151   6.4270784
  31.9765363  88.9709987   6.3513260  31.1107955  90.0795590   6.9112082
  29.8609113  88.5413211   4.1861163  29.0476979  88.8407381   4.5926355
  30.3568107  88.1468899   4.9035645  35.4583325  89.0055035  13.0176056
  35.8132712  89.2326508  13.8770522  36.1055456  89.3373412  12.3953312
  41.1881062  92.1273471   3.7225385  41.0498960  92.3175067   2.7946575
  40.8317281  92.8892854   4.1793437  29.3523188  86.1131566   9.8022397
  29.9922567  85.9720325   9.1045361  28.5200718  85.8266080   9.4260999
  41.2150441  94.1949998   8.7336657  41.6486948  94.1025287   9.5819711
  41.9282022  94.1707499   8.0956673  34.9478336  97.7952092  10.2669758
  35.0015358  98.3643028  11.0347473  34.0793118  97.9653977   9.9023795
  27.8276730  87.4969648  11.7494209  28.4999783  87.2887011  11.1006858
  27.0006516  87.2991734  11.3099441  42.0765991  94.2373699  11.2669542
  42.2701881  95.1419509  11.5128817  41.9766609  93.7781118  12.1008127
  33.7302302  84.1231589  13.7659870  33.0830217  84.8221539  13.6724346
  34.5003317  84.5567733  14.1336118  37.1381100  94.3880441  16.8410423
  36.9866606  94.1590993  15.9240507  37.1285779  95.3451043  16.8541768
  33.9066436  91.9612354  11.8256689  34.8358496  92.1123514  11.6525657
  33.4857466  92.0496375  10.9705336  32.7054768  95.9863019   9.5955227
  32.5665853  95.6181803  10.4681165  31.9169364  96.5010658   9.4239185
  34.2559983  95.3644621   6.9844065  33.9209815  95.3245391   7.8801715
  33.7563929  94.6989337   6.5114475  28.2304227  90.7712251  12.5096646
  28.0924025  90.0392490  13.1108185  29.1409150  90.6821151  12.2280834
  30.8586528  90.4832211  11.9980326  31.5686146  89.8425403  11.9566944
  30.8155836  90.7345106  12.9206506  38.8473306  97.4199564  14.9186905
  38.7885852  96.7358784  14.2517488  39.2492825  98.1618554  14.4667531
  29.5715461  87.4697429  13.8175965  29.0352819  87.0188167  14.4697561
  28.9832170  87.6043337  13.0746429  38.8490713  95.3839148  13.1500884
  37.9617492  95.0465070  13.2727283  39.4189265  94.6522179  13.3869650
  25.3054583  86.6053436  10.9028960  25.2212771  85.9979106  10.1679370
  24.4837289  87.0962455  10.9038456  32.3791867 100.0440600  10.1162128
  32.3062038 100.8495572  10.6281432  31.9369260 100.2432566   9.2910149
  35.4778297  85.0907000   6.2699155  35.9746996  84.3376962   5.9500225
  34.7065278  85.1271316   5.7042364  43.3308054  90.7947365   7.9117446
  43.3197930  91.6772081   7.5411379  42.4625433  90.4418916   7.7171983
  34.8390550  99.9427434  12.2720286  35.5518523 100.5774899  12.1996188
  34.3480579 100.0391300  11.4560288  36.5608077  93.8478687   3.8437578
  35.6264356  93.9680149   3.6742282  36.7384746  92.9451154   3.5797588
  32.0613265  87.2324383   5.9970839  31.6911053  86.6795423   6.6851745
  32.5572358  86.6282516   5.4445839  39.9480629  89.6896006   4.3787612
  40.4141081  90.5223998   4.3047915  40.3988129  89.2240988   5.0832871
  29.8902464  97.6921878  13.0925857  30.5911923  98.3258361  13.2455251
  29.4197579  98.0336609  12.3321496  37.9197291  82.0576593   8.4178513
  37.0060371  82.2880820   8.5860720  38.3490393  82.1415037   9.2692546
  37.6903750  90.2466485  10.9178408  37.0375200  90.4942393  10.2630860
  38.0684130  89.4330623  10.5840885  33.7391323  90.9886296  17.4044445
  33.0631960  90.8880426  18.0746820  34.5618957  90.8325510  17.8680442
  32.4814106 102.2953224  11.6402061  33.0332414 102.4584845  12.4051146
  32.8220299 102.8857662  10.9682085  27.4578599  84.6428374  12.2423945
  27.5219925  85.5043204  11.8301343  27.3945719  84.0302375  11.5096304
  26.9330872  86.7151506  15.8896980  27.5602910  86.3328583  16.5034504
  26.0758790  86.4965708  16.2552672  37.3324980  97.1214481  17.4950715
  37.8764884  97.7344440  17.0005670  36.7511825  97.6794060  18.0117728
  35.6182493 100.2435199   8.6265743  35.4933633  99.4424939   8.1176688
  36.2761584 100.7381393   8.1379713  27.2390661  86.5983932   7.8042883
  26.5177247  87.2119900   7.6650356  28.0283917  87.1341697   7.7259529
  37.6817401  98.0444219  10.2545293  36.7347737  97.9249571  10.1823620
  38.0300175  97.1566717  10.3371554  30.0416975  83.9338358  14.0783535
  30.5651377  84.1800655  14.8409844  29.8229308  84.7658393  13.6586672
  34.6863835  97.8396936   6.4549645  34.5388797  96.9113643   6.6357215
  35.5117328  97.8617026   5.9706720  38.2897957  98.6625494   7.5414518
  39.2144504  98.4568356   7.4038969  38.1213260  98.4141895   8.4503859
  31.2469520  84.8752053  11.7633205  30.9066340  84.0759866  12.1653885
  30.5408526  85.1753764  11.1910038  31.8985992  81.9601366  10.2160528
  32.7212061  81.4861844  10.0939419  32.1424055  82.7391850  10.7159215
  34.6825349  85.6934773   1.4481762  34.8988963  86.5759411   1.1470590
  34.2019416  85.3020987   0.7187404  29.4224570  88.6520486   8.0252507
  29.2769151  88.9660790   8.9176788  28.9449774  89.2705387   7.4723406
  31.2820953  85.6423034   8.0733396  31.2682522  84.7464128   7.7365694
  31.9993381  85.6493698   8.7071683  33.1347084  86.0760375  10.1186524
  32.8764862  86.9977445  10.1170854  32.6032124  85.6790809  10.8086988
  23.8970233  91.1925831  10.9640168  23.3523701  91.9685639  11.0960442
  24.7749582  91.5396635  10.8059290  30.6857849  84.5237415   3.3420967
  30.8073760  83.5954061   3.5411854  30.3959892  84.5376101   2.4299282
  33.5549040  82.2092325   6.4787686  33.5770736  82.2731658   5.5239666
  33.9717099  81.3696834   6.6728193  43.9332664  91.9447585   4.5166909
  44.3763810  91.1954910   4.1186032  43.0559174  91.9357721   4.1340641
  24.6836254  90.3195727  13.8570325  23.9417990  90.4678362  14.4434955
  24.3628999  90.5803993  12.9937074  40.9659868  95.9477632   1.5260838
  41.4911192  96.2864904   0.8010158  40.8782221  95.0124647   1.3423973
  32.6279917  99.8611705  13.6550715  32.9367044  99.6160852  14.5273415
  33.4255399 100.0658344  13.1669585  30.1698929  86.0369412  17.5510899
  30.2187084  86.9131535  17.1688669  30.7121443  85.4946805  16.9782542
  40.6553774  96.5810535  16.8312036  39.8649318  96.5634674  16.2916536
  40.4187129  97.1198829  17.5861073  40.7751650  93.4303002  14.1444765
  40.8249654  93.2653009  15.0860288  40.6665573  92.5630261  13.7542646
  38.0655412  89.4133930  15.4604072  38.9665275  89.2740395  15.1688069
  38.1403386  89.5788385  16.4002249  32.3998217  86.7900785  14.3057258
  31.5301527  87.0834351  14.0339846  32.6357698  87.3741230  15.0264521
  42.2769846  95.8499943  14.3886786  41.9854655  96.2129924  15.2250247
  41.6641978  95.1366952  14.2100118  43.4765529  93.4152823   6.9089357
  44.3112420  93.8542627   7.0726917  43.6124657  92.9391476   6.0897602
  40.5257035  90.9732558  12.8566844  41.0011156  91.1660204  12.0485696
  39.6022600  91.0291744  12.6110228  35.1037251  83.0080401  11.8222678
  35.6219195  83.7441428  11.4969167  34.7492384  83.3144395  12.6569437
  35.3549845  79.4280684   7.3423575  35.6351599  78.7603873   7.9684001
  36.1400452  79.6209780   6.8298239  39.2258704  87.8498318  11.0895150
  40.1776126  87.9496416  11.1107374  39.0562154  87.0576587  11.5993234
  37.2473083  84.9353901  11.2754551  36.6523015  85.2158914  10.5801039
  36.9622780  85.4247802  12.0471292  41.7046781  91.0704438  10.2037450
  41.6723101  90.1320438  10.3897133  42.3147405  91.1488474   9.4703274
  41.8541270  87.8615481  10.2495733  41.3380319  87.0773938  10.0625662
  42.7381218  87.5334198  10.4142252  39.5151997  81.6056497   6.2091545
  39.3176818  81.2971585   7.0934877  40.1251702  82.3318136   6.3389475
  47.5223331  92.1320444   9.3443486  48.2526720  91.8705733   9.9051190
  46.9130277  91.3949166   9.3845554  45.6038628  90.2728307   9.9417938
  44.8771792  90.1384272   9.3334429  45.1885915  90.5805136  10.7474656
  33.4268805  93.9918237  17.7065311  34.3471814  94.1696836  17.9005357
  33.3918388  93.0474282  17.5545010  26.4230877  91.9019271  10.3488092
  26.6416887  92.8336379  10.3676126  26.8356651  91.5427246  11.1342896
  33.3435095  82.4087357   2.3363780  32.5335823  82.0634442   2.7119026
  34.0319512  82.0994900   2.9251392  35.2725643  81.4865404   3.9588077
  35.8256682  81.9060857   4.6178100  35.5095730  80.5601152   4.0011033
  31.2958743  87.4752477  19.7390841  31.1955470  88.4246834  19.6702932
  31.0780285  87.1470716  18.8666911  38.6504450  83.5965929   3.4666741
  38.0703120  84.2550733   3.0844793  38.3840383  82.7743273   3.0554159
  37.1008017  82.9970986   5.6688061  37.6007795  83.1087521   4.8602380
  37.7443625  82.6932039   6.3088870  31.1590013  90.9049616  18.5555902
  30.6757094  91.7049976  18.7619791  31.2450952  90.9157561  17.6023346
  27.0863350  94.7954151  10.5924336  28.0406604  94.7638093  10.5254268
  26.8875874  94.3344774  11.4074562  27.6762732  93.3655267  13.1595134
  28.4955621  93.8599345  13.1829971  27.9499540  92.4487235  13.1312701
  37.4329329  85.7566019   2.5223089  36.5455184  86.0415670   2.3043284
  37.8483318  85.5959782   1.6750366  40.7843865  85.7812540   6.2377429
  41.5604255  86.2708992   6.5102045  40.0591999  86.2070594   6.6949298
  43.2216423  86.4940159   7.2951369  43.8160914  86.2535895   6.5844677
  43.2943007  85.7747290   7.9224905  37.4070352  91.2720555   2.7373379
  37.3505554  91.7289106   1.8981012  37.9598695  90.5111240   2.5596222
  41.2175158  87.0610287   3.5623499  40.9612092  86.6606923   4.3931707
  40.5928026  87.7754081   3.4373638  45.5287496  89.8006360   6.0694790
  44.9687054  89.8699549   6.8426352  44.9230999  89.6247345   5.3494287
  38.1405132  92.4625336   0.0325909  38.0853935  92.2969608  -0.9085647
  37.5151187  93.1701369   0.1888098  22.9297647  87.6993401  13.8587331
  23.5756510  87.1892355  14.3474556  22.7214798  88.4362082  14.4330756
  35.4551039  94.7674248  19.3579471  36.3242198  94.9414900  18.9966106
  34.9757790  95.5868665  19.2355201  31.4501257  81.9633445  -0.3888773
  31.4379927  82.9075285  -0.2320502  32.3424679  81.7803591  -0.6829312
  35.2653376  78.5576222   3.8657164  34.4985772  78.0034709   4.0113846
  35.6764081  78.6298091   4.7271315  27.2695138  84.8461018  17.9562345
  28.1326599  84.4897823  18.1665670  26.6960548  84.5074913  18.6437749
  43.9233221 106.4290302   8.6986271  43.5851732 106.3131367   7.8106806
  44.7922989 106.0281467   8.6787277  44.4053004 107.5825154  14.6572476
  44.3941645 107.1877952  13.7852980  44.5673643 106.8491226  15.2506248
  41.1260265 110.3662266  13.6051660  40.8350131 111.2707897  13.4898327
  41.7617249 110.4078793  14.3195730  42.0516472 107.7439114  10.1953020
  42.6480044 107.5195137   9.4809983  42.1091443 107.0023860  10.7978468
  49.5918630  97.8511135  11.2005541  49.2601955  98.7206546  10.9766756
  48.9964244  97.5347419  11.8799572  46.0850150 110.0523681  10.6001454
  45.7850873 110.9548720  10.4917261  45.7401209 109.7855864  11.4522607
  39.5362631 106.5037478   6.6338158  38.6113128 106.3713692   6.8415850
  39.7847045 107.2831697   7.1308101  49.4847294 102.5706221   8.2798891
  48.5764171 102.5021630   7.9857652  49.4334890 103.0478166   9.1080717
  43.5588160 103.9895867  16.2233789  42.7821494 104.5489787  16.2136653
  44.1978723 104.4752650  16.7448659  51.3508940 100.7722660  10.0576765
  50.7083320 101.0655193   9.4116560  50.8463869 100.6575580  10.8629962
  41.8134532 106.7981320  15.7851756  42.5549216 107.3366364  15.5086579
  41.1071517 107.4247609  15.9423307  47.2889871 108.9410461  14.3823917
  47.6973228 108.4992871  13.6378549  46.5667133 108.3663088  14.6358110
  43.6420942 103.8783068  11.7557474  44.4882137 104.3022481  11.8992123
  43.5819579 103.2216692  12.4496037  46.7920387 101.5387436  13.4138648
  46.5481319 102.2929496  12.8772923  47.0680317 101.9172784  14.2485895
  48.7458850 108.0826048  12.0915913  48.9575745 108.7257808  11.4150294
  48.6988598 107.2488365  11.6237843  46.3485079 100.6943869   8.9952485
  45.4869558 100.9925123   9.2869223  46.3747513 100.9114268   8.0633518
  40.0570729 108.7857541   8.3406054  40.6272086 109.2144809   7.7023539
  40.6478841 108.5040126   9.0390240  40.5495896 103.9520969  16.5867066
  39.9194556 104.6337249  16.8202462  40.4431983 103.8404050  15.6420204
  43.6261281 110.5082047  12.4198981  43.6905714 110.9702454  13.2557153
  42.9172205 109.8779412  12.5481291  34.1278571 103.8723255   9.9447981
  34.3786609 104.7570265  10.2105557  34.6638119 103.6927857   9.1723072
  39.8276638  98.2541734  18.9492317  39.4343584  97.7007933  19.6239961
  40.6442779  98.5652313  19.3398834  42.7444599  99.6699613  16.5412573
  43.4854313 100.2706767  16.4617036  42.9762522  98.9277251  15.9830616
  37.8885937 104.8555981  14.8190803  37.7739452 103.9541238  15.1197902
  37.0330455 105.1019677  14.4675619  44.9677775 112.7973721  16.4178304
  44.5241629 112.0110100  16.0999208  45.6294989 112.9852872  15.7522194
  47.0659013 113.0776521  14.4459705  47.0477488 113.8985402  13.9539974
  47.9878933 112.9530596  14.6709846  43.5232067 110.5920650  15.2883213
  44.0560404 109.8308939  15.0582521  42.9946148 110.2994302  16.0307368
  46.6901762  95.6980716  10.8176855  46.3466032  96.5882358  10.7415965
  47.0580725  95.5082374   9.9546440  45.7698303  98.0685372   8.7826088
  45.2663098  98.0315507   7.9693893  46.0628910  98.9778114   8.8422745
  42.0141189  98.1524101   7.7892270  42.8794185  97.9566910   7.4298159
  42.0818697  97.9234453   8.7161627  39.6203508 100.3826309   5.1608637
  40.1947260 100.1601491   4.4281830  40.2074490 100.4515004   5.9137238
  41.9226175  97.2567558   3.8883706  41.2690588  96.9416575   3.2640321
  41.8806649  96.6343299   4.6143529  45.1563916 103.7449492   8.2131354
  44.2386477 103.9664439   8.0553042  45.5724059 103.8195802   7.3543061
  48.4889428  94.9574276   5.9194593  48.7948305  94.0971639   5.6320508
  49.2142033  95.5491896   5.7193586  42.7610508 105.2528069   6.4270784
  42.8159117 104.3001905   6.3513260  41.9501710 105.4087508   6.9112082
  40.7002868 103.8705128   4.1861163  39.8870733 104.1699299   4.5926355
  41.1961862 103.4760817   4.9035645  46.2977079 104.3346953  13.0176056
  46.6526467 104.5618426  13.8770522  46.9449210 104.6665330  12.3953312
  40.1916942 101.4423484   9.8022397  40.8316322 101.3012243   9.1045361
  39.3594473 101.1557997   9.4260999  38.6670484 102.8261566  11.7494209
  39.3393538 102.6178928  11.1006858  37.8400271 102.6283652  11.3099441
  44.5696056  99.4523507  13.7659870  43.9223971 100.1513457  13.6724346
  45.3397071  99.8859651  14.1336118  47.9774854 109.7172359  16.8410423
  47.8260360 109.4882911  15.9240507  47.9679534 110.6742961  16.8541768
  44.7460190 107.2904272  11.8256689  45.6752250 107.4415432  11.6525657
  44.3251220 107.3788293  10.9705336  43.5448522 111.3154936   9.5955227
  43.4059608 110.9473721  10.4681165  42.7563118 111.8302576   9.4239185
  39.0697981 106.1004169  12.5096646  38.9317779 105.3684408  13.1108185
  39.9802905 106.0113069  12.2280834  41.6980282 105.8124128  11.9980326
  42.4079901 105.1717321  11.9566944  41.6549590 106.0637023  12.9206506
  49.6867061 112.7491482  14.9186905  49.6279607 112.0650702  14.2517488
  50.0886579 113.4910472  14.4667531  40.4109216 102.7989346  13.8175965
  39.8746573 102.3480085  14.4697561  39.8225924 102.9335255  13.0746429
  49.6884468 110.7131066  13.1500884  48.8011247 110.3756987  13.2727283
  50.2583019 109.9814097  13.3869650  36.1448337 101.9345354  10.9028960
  36.0606526 101.3271024  10.1679370  35.3231044 102.4254372  10.9038456
  46.3172051 100.4198917   6.2699155  46.8140751  99.6668880   5.9500225
  45.5459033 100.4563234   5.7042364  42.9007020 102.5616300   5.9970839
  42.5304807 102.0087341   6.6851745  43.3966112 101.9574434   5.4445839
  40.7296218 113.0213795  13.0925857  41.4305678 113.6550278  13.2455251
  40.2591333 113.3628527  12.3321496  48.7591046  97.3868511   8.4178513
  47.8454126  97.6172738   8.5860720  49.1884147  97.4706955   9.2692546
  48.5297504 105.5758403  10.9178408  47.8768955 105.8234310  10.2630860
  48.9077884 104.7622541  10.5840885  44.5785077 106.3178214  17.4044445
  43.9025714 106.2172343  18.0746820  45.4012711 106.1617428  17.8680442
  38.2972353  99.9720291  12.2423945  38.3613680 100.8335122  11.8301343
  38.2339474  99.3594293  11.5096304  37.7724626 102.0443424  15.8896980
  38.3996665 101.6620501  16.5034504  36.9152545 101.8257626  16.2552672
  48.1718735 112.4506399  17.4950715  48.7158639 113.0636357  17.0005670
  47.5905579 113.0085977  18.0117728  38.0784416 101.9275849   7.8042883
  37.3571002 102.5411817   7.6650356  38.8677672 102.4633614   7.7259529
  40.8810729  99.2630276  14.0783535  41.4045131  99.5092573  14.8409844
  40.6623063 100.0950311  13.6586672  42.0863274 100.2043971  11.7633205
  41.7460095  99.4051784  12.1653885  41.3802281 100.5045682  11.1910038
  42.7379746  97.2893283  10.2160528  43.5605815  96.8153762  10.0939419
  42.9817810  98.0683767  10.7159215  40.2618325 103.9812404   8.0252507
  40.1162906 104.2952707   8.9176788  39.7843529 104.5997304   7.4723406
  42.1214708 100.9714952   8.0733396  42.1076277 100.0756045   7.7365694
  42.8387136 100.9785616   8.7071683  43.9740839 101.4052292  10.1186524
  43.7158616 102.3269363  10.1170854  43.4425879 101.0082727  10.8086988
  34.7363987 106.5217749  10.9640168  34.1917455 107.2977556  11.0960442
  35.6143337 106.8688553  10.8059290  41.5251604  99.8529332   3.3420967
  41.6467515  98.9245979   3.5411854  41.2353646  99.8668018   2.4299282
  44.3942794  97.5384243   6.4787686  44.4164491  97.6023576   5.5239666
  44.8110853  96.6988751   6.6728193  35.5230009 105.6487645  13.8570325
  34.7811745 105.7970280  14.4434955  35.2022753 105.9095910  12.9937074
  43.4673672 115.1903623  13.6550715  43.7760798 114.9452770  14.5273415
  44.2649154 115.3950261  13.1669585  41.0092683 101.3661330  17.5510899
  41.0580839 102.2423453  17.1688669  41.5515197 100.8238723  16.9782542
  51.4947529 111.9102453  16.8312036  50.7043073 111.8926592  16.2916536
  51.2580884 112.4490747  17.5861073  51.6145404 108.7594919  14.1444765
  51.6643409 108.5944927  15.0860288  51.5059327 107.8922178  13.7542646
  48.9049166 104.7425847  15.4604072  49.8059029 104.6032312  15.1688069
  48.9797141 104.9080302  16.4002249  43.2391972 102.1192702  14.3057258
  42.3695281 102.4126268  14.0339846  43.4751452 102.7033147  15.0264521
  53.1163601 111.1791861  14.3886786  52.8248409 111.5421841  15.2250247
  52.5035732 110.4658869  14.2100118  51.3650789 106.3024476  12.8566844
  51.8404911 106.4952122  12.0485696  50.4416354 106.3583661  12.6110228
  45.9431006  98.3372319  11.8222678  46.4612949  99.0733346  11.4969167
  45.5886138  98.6436312  12.6569437  46.1943600  94.7572602   7.3423575
  46.4745353  94.0895791   7.9684001  46.9794207  94.9501697   6.8298239
  50.0652458 103.1790236  11.0895150  51.0169881 103.2788333  11.1107374
  49.8955908 102.3868504  11.5993234  48.0866838 100.2645819  11.2754551
  47.4916770 100.5450832  10.5801039  47.8016534 100.7539720  12.0471292
  52.6935024 103.1907399  10.2495733  52.1774073 102.4065855  10.0625662
  53.5774973 102.8626115  10.4142252  50.3545751  96.9348414   6.2091545
  50.1570572  96.6263503   7.0934877  50.9645457  97.6610053   6.3389475
  44.2662559 109.3210154  17.7065311  45.1865569 109.4988753  17.9005357
  44.2312142 108.3766200  17.5545010  37.2624632 107.2311189  10.3488092
  37.4810642 108.1628297  10.3676126  37.6750406 106.8719163  11.1342896
  44.1828850  97.7379274   2.3363780  43.3729578  97.3926359   2.7119026
  44.8713267  97.4286818   2.9251392  46.1119398  96.8157321   3.9588077
  46.6650436  97.2352775   4.6178100  46.3489484  95.8893069   4.0011033
  42.1352497 102.8044395  19.7390841  42.0349224 103.7538752  19.6702932
  41.9174039 102.4762634  18.8666911  47.9401771  98.3262904   5.6688061
  48.4401550  98.4379439   4.8602380  48.5837379  98.0223957   6.3088870
  41.9983767 106.2341534  18.5555902  41.5150849 107.0341894  18.7619791
  42.0844706 106.2449479  17.6023346  37.9257105 110.1246068  10.5924336
  38.8800358 110.0930011  10.5254268  37.7269628 109.6636692  11.4074562
  38.5156487 108.6947184  13.1595134  39.3349376 109.1891263  13.1829971
  38.7893295 107.7779153  13.1312701  33.7691401 103.0285318  13.8587331
  34.4150265 102.5184272  14.3474556  33.5608552 103.7654000  14.4330756
  46.2944793 110.0966166  19.3579471  47.1635953 110.2706818  18.9966106
  45.8151545 110.9160583  19.2355201  46.1047131  93.8868140   3.8657164
  45.3379527  93.3326626   4.0113846  46.5157836  93.9590008   4.7271315
  38.1088892 100.1752935  17.9562345  38.9720354  99.8189740  18.1665670
  37.5354303  99.8366830  18.6437749  50.6670393 113.5833652  18.9492317
  50.2737338 113.0299851  19.6239961  51.4836533 113.8944231  19.3398834
  53.5838354 114.9991531  16.5412573  54.3248067 115.5998684  16.4617036
  53.8156277 114.2569169  15.9830616  48.6118381 117.3735341  15.8896980
  49.2390419 116.9912419  16.5034504  47.7546299 117.1549543  16.2552672
  51.8486438 116.6953247  17.5510899  51.8974593 117.5715370  17.1688669
  52.3908952 116.1530641  16.9782542  52.9746252 118.1336313  19.7390841
  52.8742979 119.0830669  19.6702932  52.7567794 117.8054551  18.8666911
  48.9482647 115.5044853  17.9562345  49.8114108 115.1481658  18.1665670
  48.3748057 115.1658748  18.6437749  26.4931227  58.7984686   4.2196022
  27.0371131  59.4114644   3.7250976  25.9118072  59.3564265   4.7363035
  29.8160021  58.2580740   3.5557343  29.0255565  58.2404879   3.0161842
  29.5793376  58.7969034   4.3106380  24.6157286  56.4444453   6.0824778
  25.4848445  56.6185105   5.7211413  24.1364037  57.2638870   5.9600507
  36.2749761  68.1533079  -4.5129947  36.9128171  68.0339826  -5.2166607
  36.1570604  69.1013923  -4.4541995  33.0839468  68.1060507  -4.5768423
  32.7457979  67.9901572  -5.4647888  33.9529236  67.7051672  -4.5967416
  33.5659251  69.2595359   1.3817783  33.5547891  68.8648157   0.5098287
  33.7279890  68.5261431   1.9751554  30.2866512  72.0432471   0.3296967
  29.9956378  72.9478101   0.2143633  30.9223496  72.0848998   1.0441037
  31.2122719  69.4209319  -3.0801673  31.8086291  69.1965342  -3.7944710
  31.2697690  68.6794065  -2.4776226  41.2299457  65.8159766  -6.5343761
  41.9624629  65.2458983  -6.3005931  40.4738813  65.4281366  -6.0937255
  38.7524877  59.5281340  -2.0749152  38.4208202  60.3976751  -2.2987937
  38.1570491  59.2117624  -1.3955122  35.2456397  71.7293886  -2.6753239
  34.9457120  72.6318925  -2.7837432  34.9007456  71.4626069  -1.8232086
  38.6453541  64.2476426  -4.9955802  37.7370418  64.1791835  -5.2897041
  38.5941136  64.7248371  -4.1673977  32.7194406  65.6666072   2.9479095
  31.9427740  66.2259992   2.9381960  33.3584969  66.1522855   3.4693965
  40.5115187  62.4492865  -3.2177928  39.8689567  62.7425398  -3.8638134
  40.0070115  62.3345785  -2.4124731  30.9740779  68.4751525   2.5097062
  31.7155463  69.0136569   2.2331886  30.2677764  69.1017814   2.6668614
  36.4496118  70.6180666   1.1069224  36.8579474  70.1763076   0.3623856
  35.7273380  70.0433293   1.3603417  32.8027188  65.5553272  -1.5197219
  33.6488383  65.9792686  -1.3762570  32.7425826  64.8986897  -0.8258656
  36.7724933  71.1781856  -5.1378487  36.1433795  71.3427570  -5.8402420
  36.3850595  71.5923466  -4.3667523  40.6514165  72.1136294  -7.7834124
  39.9665203  72.4935196  -8.3337090  40.7358014  72.7231621  -7.0502176
  35.9526634  63.2157641   0.1383954  35.7087566  63.9699701  -0.3981770
  36.2286564  63.5942988   0.9731201  37.9065096  69.7596253  -1.1838780
  38.1181992  70.4028013  -1.8604399  37.8594845  68.9258570  -1.6516850
  29.2176976  70.4627746  -4.9348639  29.7878333  70.8915014  -5.5731155
  29.8085088  70.1810331  -4.2364453  29.7102142  65.6291173   3.3112372
  29.0800803  66.3107454   3.5447769  29.6038230  65.5174255   2.3665510
  39.0210924  72.6368209  -3.0116423  39.8428368  72.2348396  -3.2933741
  39.0173327  72.5336443  -2.0600307  32.7867528  72.1852252  -0.8555712
  32.8511960  72.6472659  -0.0197540  32.0778452  71.5549617  -0.7273402
  47.1116917  68.9806957  -6.6631451  46.3580626  68.4114355  -6.8187447
  47.2464459  68.9469622  -5.7160817  28.9882885  59.9311939   5.6737623
  28.5949831  59.3778138   6.3485268  29.8049025  60.2422518   6.0644141
  31.9050846  61.3469818   3.2657880  32.6460559  61.9476972   3.1862342
  32.1368769  60.6047456   2.7075922  27.0492184  66.5326186   1.5436110
  26.9345699  65.6311443   1.8443208  26.1936702  66.7789882   1.1920926
  34.1284022  74.4743926   3.1423610  33.6847876  73.6880304   2.8244515
  34.7901235  74.6623076   2.4767501  36.2265260  74.7546726   1.1705011
  36.2083735  75.5755607   0.6785281  37.1485180  74.6300801   1.3955153
  32.6838314  72.2690855   2.0128520  33.2166651  71.5079144   1.7827828
  32.1552395  71.9764507   2.7552674  39.0283873  69.5925868  -5.3585622
  38.3707547  70.2825130  -5.2705493  39.8324272  69.9822300  -5.0151636
  37.8389332  67.9470241  -7.3081680  38.3521213  68.5800233  -6.8059970
  38.4890555  67.3471437  -7.6738320  38.6051128  72.9276242  -9.1802538
  38.1513455  72.0867152  -9.1237347  37.9745095  73.5637641  -8.8427757
  37.0484067  74.7652739  -8.2452719  37.3407041  75.3257796  -8.9640354
  37.5582688  75.0581300  -7.4899560  35.4583326  66.0117158  -0.2578637
  35.8132714  66.2388631   0.6015829  36.1055457  66.3435535  -0.8801382
  41.2150443  71.2012121  -4.5418036  41.6486949  71.1087410  -3.6934982
  41.9282023  71.1769621  -5.1798020  34.9478337  74.8014215  -3.0084936
  35.0015360  75.3705151  -2.2407220  34.0793119  74.9716100  -3.3730899
  42.0765992  71.2435821  -2.0085151  42.2701882  72.1481632  -1.7625876
  41.9766610  70.7843240  -1.1746566  33.7302303  61.1293712   0.4905176
  33.0830218  61.8283662   0.3969653  34.5003318  61.5629856   0.8581425
  37.1381101  71.3942564   3.5655730  36.9866607  71.1653116   2.6485813
  37.1285780  72.3513165   3.5787075  33.9066437  68.9674477  -1.4498004
  34.8358497  69.1185636  -1.6229037  33.4857467  69.0558498  -2.3049357
  32.7054769  72.9925141  -3.6799466  32.5665855  72.6243926  -2.8073528
  31.9169365  73.5072781  -3.8515509  34.2559984  72.3706744  -6.2910629
  33.9209817  72.3307514  -5.3952979  33.7563930  71.7051460  -6.7640218
  28.2304228  67.7774374  -0.7658047  28.0924026  67.0454613  -0.1646508
  29.1409152  67.6883274  -1.0473860  30.8586529  67.4894333  -1.2774368
  31.5686147  66.8487525  -1.3187749  30.8155837  67.7407228  -0.3548187
  38.8473307  74.4261687   1.6432211  38.7885854  73.7420907   0.9762794
  39.2492826  75.1680677   1.1912837  29.5715463  64.4759551   0.5421272
  29.0352820  64.0250290   1.1942868  28.9832171  64.6105460  -0.2008264
  38.8490715  72.3901271  -0.1253809  37.9617493  72.0527192  -0.0027410
  39.4189266  71.6584302   0.1114957  32.3791868  77.0502723  -3.1592566
  32.3062040  77.8557694  -2.6473261  31.9369261  77.2494689  -3.9844544
  43.3308055  67.8009488  -5.3637247  43.3197931  68.6834203  -5.7343314
  42.4625435  67.4481039  -5.5582710  34.8390552  76.9489557  -1.0034407
  35.5518524  77.5837022  -1.0758506  34.3480580  77.0453423  -1.8194405
  29.8902465  74.6984000  -0.1828836  30.5911925  75.3320483  -0.0299442
  29.4197580  75.0398732  -0.9433197  37.6903751  67.2528608  -2.3576286
  37.0375201  67.5004515  -3.0123833  38.0684131  66.4392746  -2.6913809
  33.7391324  67.9948419   4.1289751  33.0631961  67.8942548   4.7992126
  34.5618958  67.8387633   4.5925748  32.4814107  79.3015346  -1.6352633
  33.0332415  79.4646968  -0.8703548  32.8220300  79.8919784  -2.3072608
  26.9330873  63.7213629   2.6142286  27.5602912  63.3390706   3.2279811
  26.0758792  63.5027831   2.9797979  37.3324981  74.1276604   4.2196022
  37.8764885  74.7406562   3.7250976  36.7511826  74.6856182   4.7363035
  35.6182494  77.2497322  -4.6488951  35.4933634  76.4487062  -5.1578005
  36.2761585  77.7443515  -5.1374981  37.6817403  75.0506342  -3.0209401
  36.7347738  74.9311693  -3.0931074  38.0300176  74.1628840  -2.9383139
  30.0416976  60.9400481   0.8028841  30.5651378  61.1862777   1.5655151
  29.8229309  61.7720516   0.3831979  34.6863836  74.8459058  -6.8205048
  34.5388798  73.9175766  -6.6397478  35.5117330  74.8679149  -7.3047973
  38.2897958  75.6687617  -5.7340176  39.2144505  75.4630478  -5.8715724
  38.1213261  75.4204018  -4.8250834  33.1347085  63.0822497  -3.1568169
  32.8764863  64.0039568  -3.1583839  32.6032126  62.6852932  -2.4667705
  23.8970234  68.1987953  -2.3114525  23.3523702  68.9747761  -2.1794251
  24.7749584  68.5458758  -2.4695404  43.9332665  68.9509707  -8.7587784
  44.3763811  68.2017033  -9.1568661  43.0559176  68.9419844  -9.1414052
  24.6836256  67.3257850   0.5815632  23.9417992  67.4740485   1.1680262
  24.3629000  67.5866115  -0.2817619  32.6279918  76.8673828   0.3796022
  32.9367045  76.6222975   1.2518721  33.4255400  77.0720466  -0.1085108
  30.1698930  63.0431535   4.2756206  30.2187086  63.9193657   3.8933975
  30.7121444  62.5008928   3.7027849  40.6553776  73.5872658   3.5557343
  39.8649319  73.5696797   3.0161842  40.4187130  74.1260952   4.3106380
  40.7751651  70.4365124   0.8690071  40.8249656  70.2715132   1.8105594
  40.6665574  69.5692383   0.4787952  38.0655413  66.4196052   2.1849378
  38.9665276  66.2802517   1.8933376  38.1403388  66.5850507   3.1247556
  32.3998218  63.7962907   1.0302564  31.5301528  64.0896473   0.7585153
  32.6357699  64.3803352   1.7509828  42.2769848  72.8562066   1.1132093
  41.9854656  73.2192046   1.9495554  41.6641979  72.1429074   0.9345425
  43.4765530  70.4214946  -6.3665337  44.3112421  70.8604750  -6.2027776
  43.6124659  69.9453599  -7.1857091  40.5257036  67.9794680  -0.4187849
  41.0011157  68.1722327  -1.2268998  39.6022601  68.0353866  -0.6644465
  35.1037252  60.0142524  -1.4532015  35.6219196  60.7503551  -1.7785527
  34.7492385  60.3206517  -0.6185256  39.2258705  64.8560441  -2.1859543
  40.1776128  64.9558538  -2.1647319  39.0562155  64.0638709  -1.6761459
  37.2473084  61.9416024  -2.0000142  36.6523016  62.2221036  -2.6953654
  36.9622781  62.4309925  -1.2283401  41.7046783  68.0766560  -3.0717244
  41.6723103  67.1382561  -2.8857560  42.3147406  68.1550597  -3.8051419
  41.8541271  64.8677604  -3.0258961  41.3380320  64.0836060  -3.2129032
  42.7381220  64.5396320  -2.8612441  47.5223332  69.1382567  -3.9311207
  48.2526721  68.8767855  -3.3703504  46.9130278  68.4011289  -3.8909139
  45.6038630  67.2790430  -3.3336756  44.8771793  67.1446395  -3.9420264
  45.1885916  67.5867258  -2.5280038  33.4268806  70.9980359   4.4310617
  34.3471815  71.1758958   4.6250664  33.3918389  70.0536405   4.2790317
  26.4230879  68.9081394  -2.9266602  26.6416888  69.8398502  -2.9078568
  26.8356652  68.5489368  -2.1411798  31.2958744  64.4814600   6.4636147
  31.1955471  65.4308957   6.3948238  31.0780286  64.1532839   5.5912217
  31.1590014  67.9111739   5.2801209  30.6757096  68.7112099   5.4865098
  31.2450953  67.9219683   4.3268653  27.0863351  71.8016273  -2.6830357
  28.0406605  71.7700216  -2.7500426  26.8875875  71.3406897  -1.8680131
  27.6762734  70.3717389  -0.1159560  28.4955623  70.8661468  -0.0924722
  27.9499541  69.4549357  -0.1441992  43.2216425  63.5002282  -5.9803324
  43.8160915  63.2598018  -6.6910016  43.2943008  62.7809412  -5.3529788
  45.5287497  66.8068483  -7.2059903  44.9687055  66.8761672  -6.4328341
  44.9231001  66.6309467  -7.9260407  22.9297648  64.7055523   0.5832638
  23.5756511  64.1954477   1.0719863  22.7214799  65.4424205   1.1576063
  35.4551040  71.7736371   6.0824778  36.3242200  71.9477023   5.7211413
  34.9757791  72.5930788   5.9600507  27.2695139  61.8523140   4.6807652
  28.1326600  61.4959945   4.8910976  26.6960549  61.5137035   5.3683056
  43.9233222  83.4352425  -4.5768423  43.5851734  83.3193489  -5.4647888
  44.7922990  83.0343590  -4.5967416  44.4053005  84.5887276   1.3817783
  44.3941646  84.1940075   0.5098287  44.5673644  83.8553349   1.9751554
  41.1260266  87.3724388   0.3296967  40.8350132  88.2770019   0.2143633
  41.7617250  87.4140916   1.0441037  42.0516473  84.7501237  -3.0801673
  42.6480045  84.5257259  -3.7944710  42.1091445  84.0085982  -2.4776226
  49.5918632  74.8573258  -2.0749152  49.2601956  75.7268669  -2.2987937
  48.9964245  74.5409542  -1.3955122  46.0850151  87.0585804  -2.6753239
  45.7850874  87.9610843  -2.7837432  45.7401211  86.7917987  -1.8232086
  39.5362633  83.5099601  -6.6416535  38.6113129  83.3775815  -6.4338843
  39.7847046  84.2893820  -6.1446593  49.4847295  79.5768344  -4.9955802
  48.5764172  79.5083752  -5.2897041  49.4334891  80.0540289  -4.1673977
  43.5588161  80.9957990   2.9479095  42.7821495  81.5551910   2.9381960
  44.1978724  81.4814773   3.4693965  51.3508941  77.7784782  -3.2177928
  50.7083322  78.0717316  -3.8638134  50.8463870  77.6637703  -2.4124731
  41.8134533  83.8043443   2.5097062  42.5549217  84.3428487   2.2331886
  41.1071519  84.4309732   2.6668614  47.2889873  85.9472583   1.1069224
  47.6973229  85.5054994   0.3623856  46.5667134  85.3725211   1.3603417
  43.6420943  80.8845190  -1.5197219  44.4882138  81.3084604  -1.3762570
  43.5819580  80.2278814  -0.8258656  46.7920388  78.5449559   0.1383954
  46.5481320  79.2991619  -0.3981770  47.0680319  78.9234906   0.9731201
  48.7458851  85.0888171  -1.1838780  48.9575746  85.7319931  -1.8604399
  48.6988599  84.2550487  -1.6516850  46.3485080  77.7005992  -4.2802208
  45.4869559  77.9987245  -3.9885470  46.3747515  77.9176390  -5.2121175
  40.0570730  85.7919664  -4.9348639  40.6272087  86.2206932  -5.5731155
  40.6478842  85.5102248  -4.2364453  40.5495897  80.9583091   3.3112372
  39.9194557  81.6399372   3.5447769  40.4431985  80.8466173   2.3665510
  43.6261282  87.5144170  -0.8555712  43.6905715  87.9764577  -0.0197540
  42.9172206  86.8841535  -0.7273402  34.1278572  80.8785378  -3.3306713
  34.3786611  81.7632388  -3.0649137  34.6638121  80.6989979  -4.1031621
  39.8276640  75.2603857   5.6737623  39.4343585  74.7070056   6.3485268
  40.6442780  75.5714435   6.0644141  42.7444601  76.6761736   3.2657880
  43.4854314  77.2768889   3.1862342  42.9762523  75.9339374   2.7075922
  37.8885939  81.8618103   1.5436110  37.7739454  80.9603361   1.8443208
  37.0330456  82.1081800   1.1920926  44.9677776  89.8035844   3.1423610
  44.5241631  89.0172222   2.8244515  45.6294990  89.9914994   2.4767501
  47.0659014  90.0838644   1.1705011  47.0477490  90.9047525   0.6785281
  47.9878934  89.9592719   1.3955153  43.5232069  87.5982773   2.0128520
  44.0560405  86.8371061   1.7827828  42.9946150  87.3056425   2.7552674
  46.6901764  72.7042839  -2.4577838  46.3466033  73.5944481  -2.5338728
  47.0580726  72.5144497  -3.3208253  45.7698304  75.0747494  -4.4928605
  45.2663099  75.0377629  -5.3060800  46.0628911  75.9840237  -4.4331949
  42.0141190  75.1586224  -5.4862423  42.8794187  74.9629033  -5.8456534
  42.0818699  74.9296576  -4.5593067  39.6203509  77.3888432  -8.1146057
  40.1947261  77.1663613  -8.8472864  40.2074491  77.4577126  -7.3617455
  41.9226177  74.2629681  -9.3870987  41.2690589  73.9478698 -10.0114372
  41.8806651  73.6405421  -8.6611164  45.1563917  80.7511614  -5.0623340
  44.2386478  80.9726561  -5.2201652  45.5724061  80.8257925  -5.9211632
  48.4889429  71.9636398  -7.3560101  48.7948306  71.1033762  -7.6434186
  49.2142034  72.5554018  -7.5561107  42.7610509  82.2590191  -6.8483910
  42.8159119  81.3064028  -6.9241433  41.9501711  82.4149630  -6.3642611
  40.7002869  80.8767251  -9.0893531  39.8870734  81.1761422  -8.6828339
  41.1961863  80.4822940  -8.3719049  46.2977081  81.3409075  -0.2578637
  46.6526468  81.5680549   0.6015829  46.9449212  81.6727452  -0.8801382
  40.1916944  78.4485607  -3.4732296  40.8316323  78.3074366  -4.1709333
  39.3594474  78.1620120  -3.8493694  38.6670485  79.8323689  -1.5260485
  39.3393539  79.6241051  -2.1747836  37.8400272  79.6345775  -1.9655252
  44.5696057  76.4585630   0.4905176  43.9223972  77.1575579   0.3969653
  45.3397073  76.8921774   0.8581425  47.9774855  86.7234482   3.5655730
  47.8260362  86.4945033   2.6485813  47.9679535  87.6805083   3.5787075
  44.7460192  84.2966394  -1.4498004  45.6752252  84.4477554  -1.6229037
  44.3251222  84.3850415  -2.3049357  43.5448523  88.3217059  -3.6799466
  43.4059609  87.9535843  -2.8073528  42.7563120  88.8364698  -3.8515509
  39.0697983  83.1066292  -0.7658047  38.9317781  82.3746530  -0.1646508
  39.9802906  83.0175192  -1.0473860  41.6980283  82.8186251  -1.2774368
  42.4079902  82.1779443  -1.3187749  41.6549591  83.0699146  -0.3548187
  49.6867062  89.7553604   1.6432211  49.6279608  89.0712824   0.9762794
  50.0886580  90.4972594   1.1912837  40.4109217  79.8051469   0.5421272
  39.8746574  79.3542207   1.1942868  39.8225926  79.9397378  -0.2008264
  49.6884469  87.7193188  -0.1253809  48.8011248  87.3819110  -0.0027410
  50.2583020  86.9876219   0.1114957  36.1448338  78.9407477  -2.3725734
  36.0606527  78.3333146  -3.1075324  35.3231045  79.4316495  -2.3716237
  46.3172052  77.4261040  -7.0055539  46.8140752  76.6731002  -7.3254469
  45.5459034  77.4625357  -7.5712329  42.9007021  79.5678423  -7.2783854
  42.5304809  79.0149463  -6.5902949  43.3966114  78.9636557  -7.8308854
  40.7296220  90.0275918  -0.1828836  41.4305679  90.6612401  -0.0299442
  40.2591335  90.3690650  -0.9433197  48.7591047  74.3930634  -4.8576180
  47.8454127  74.6234860  -4.6893973  49.1884149  74.4769078  -4.0062148
  48.5297506  82.5820526  -2.3576286  47.8768956  82.8296433  -3.0123833
  48.9077886  81.7684664  -2.6913809  44.5785079  83.3240337   4.1289751
  43.9025716  83.2234466   4.7992126  45.4012713  83.1679550   4.5925748
  38.2972355  76.9782414  -1.0330748  38.3613681  77.8397245  -1.4453350
  38.2339475  76.3656415  -1.7658390  37.7724627  79.0505546   2.6142286
  38.3996666  78.6682624   3.2279811  36.9152546  78.8319748   2.9797979
  48.1718736  89.4568522   4.2196022  48.7158640  90.0698480   3.7250976
  47.5905581  90.0148100   4.7363035  38.0784417  78.9337972  -5.4711810
  37.3571003  79.5473940  -5.6104337  38.8677673  79.4695737  -5.5495164
  40.8810731  76.2692399   0.8028841  41.4045132  76.5154695   1.5655151
  40.6623064  77.1012433   0.3831979  42.0863276  77.2106094  -1.5121488
  41.7460096  76.4113907  -1.1100808  41.3802282  77.5107805  -2.0844655
  42.7379747  74.2955406  -3.0594165  43.5605817  73.8215884  -3.1815275
  42.9817811  75.0745890  -2.5595479  40.2618326  80.9874527  -5.2502186
  40.1162907  81.3014830  -4.3577905  39.7843530  81.6059427  -5.8031288
  42.1214709  77.9777075  -5.2021297  42.1076278  77.0818168  -5.5388999
  42.8387137  77.9847738  -4.5683011  43.9740840  78.4114415  -3.1568169
  43.7158618  79.3331486  -3.1583839  43.4425880  78.0144849  -2.4667705
  34.7363988  83.5279871  -2.3114525  34.1917456  84.3039679  -2.1794251
  35.6143338  83.8750676  -2.4695404  41.5251605  76.8591455  -9.9333727
  41.6467516  75.9308101  -9.7342839  41.2353647  76.8730141 -10.8455411
  44.3942795  74.5446365  -6.7967007  44.4164492  74.6085699  -7.7515027
  44.8110854  73.7050874  -6.6026501  35.5230010  82.6549767   0.5815632
  34.7811746  82.8032403   1.1680262  35.2022754  82.9158033  -0.2817619
  43.4673673  92.1965746   0.3796022  43.7760799  91.9514892   1.2518721
  44.2649155  92.4012384  -0.1085108  41.0092685  78.3723452   4.2756206
  41.0580840  79.2485575   3.8933975  41.5515199  77.8300845   3.7027849
  51.4947530  88.9164576   3.5557343  50.7043074  88.8988714   3.0161842
  51.2580885  89.4552869   4.3106380  51.6145405  85.7657042   0.8690071
  51.6643410  85.6007049   1.8105594  51.5059329  84.8984301   0.4787952
  48.9049168  81.7487970   2.1849378  49.8059030  81.6094435   1.8933376
  48.9797142  81.9142425   3.1247556  43.2391973  79.1254825   1.0302564
  42.3695282  79.4188391   0.7585153  43.4751453  79.7095270   1.7509828
  53.1163602  88.1853984   1.1132093  52.8248410  88.5483964   1.9495554
  52.5035733  87.4720992   0.9345425  51.3650790  83.3086598  -0.4187849
  51.8404912  83.5014244  -1.2268998  50.4416356  83.3645784  -0.6644465
  45.9431007  75.3434442  -1.4532015  46.4612951  76.0795469  -1.7785527
  45.5886140  75.6498435  -0.6185256  46.1943601  71.7634724  -5.9331119
  46.4745355  71.0957913  -5.3070692  46.9794208  71.9563820  -6.4456455
  50.0652459  80.1852358  -2.1859543  51.0169882  80.2850456  -2.1647319
  49.8955910  79.3930627  -1.6761459  48.0866839  77.2707941  -2.0000142
  47.4916771  77.5512954  -2.6953654  47.8016536  77.7601842  -1.2283401
  52.6935026  80.1969521  -3.0258961  52.1774074  79.4127978  -3.2129032
  53.5774974  79.8688238  -2.8612441  50.3545753  73.9410537  -7.0663148
  50.1570574  73.6325625  -6.1819816  50.9645458  74.6672176  -6.9365218
  44.2662561  86.3272277   4.4310617  45.1865570  86.5050876   4.6250664
  44.2312144  85.3828322   4.2790317  37.2624633  84.2373312  -2.9266602
  37.4810643  85.1690419  -2.9078568  37.6750407  83.8781286  -2.1411798
  44.1828851  74.7441397 -10.9390913  43.3729579  74.3988482 -10.5635667
  44.8713268  74.4348941 -10.3503302  46.1119399  73.8219444  -9.3166617
  46.6650438  74.2414897  -8.6576593  46.3489486  72.8955192  -9.2743661
  42.1352498  79.8106517   6.4636147  42.0349225  80.7600874   6.3948238
  41.9174040  79.4824756   5.5912217  47.9401773  75.3325027  -7.6066632
  48.4401551  75.4441561  -8.4152313  48.5837381  75.0286080  -6.9665824
  41.9983768  83.2403656   5.2801209  41.5150850  84.0404016   5.4865098
  42.0844707  83.2511601   4.3268653  37.9257106  87.1308191  -2.6830357
  38.8800359  87.0992133  -2.7500426  37.7269630  86.6698815  -1.8680131
  38.5156488  85.7009307  -0.1159560  39.3349377  86.1953386  -0.0924722
  38.7893296  84.7841275  -0.1441992  33.7691402  80.0347441   0.5832638
  34.4150266  79.5246395   1.0719863  33.5608553  80.7716123   1.1576063
  46.2944794  87.1028288   6.0824778  47.1635954  87.2768941   5.7211413
  45.8151546  87.9222705   5.9600507  46.1047132  70.8930262  -9.4097530
  45.3379528  70.3388749  -9.2640847  46.5157837  70.9652131  -8.5483378
  38.1088893  77.1815058   4.6807652  38.9720355  76.8251863   4.8910976
  37.5354304  76.8428953   5.3683056  50.6670394  90.5895775   5.6737623
  50.2737340  90.0361973   6.3485268  51.4836534  90.9006353   6.0644141
  53.5838355  92.0053654   3.2657880  54.3248068  92.6060807   3.1862342
  53.8156278  91.2631292   2.7075922  48.6118382  94.3797464   2.6142286
  49.2390421  93.9974541   3.2279811  47.7546301  94.1611666   2.9797979
  51.8486439  93.7015370   4.2756206  51.8974594  94.5777493   3.8933975
  52.3908953  93.1592763   3.7027849  52.9746253  95.1398435   6.4636147
  52.8742980  96.0892792   6.3948238  52.7567795  94.8116674   5.5912217
  44.6085157  95.3639359   0.5832638  45.2544020  94.8538313   1.0719863
  44.4002308  96.1008040   1.1576063  48.9482648  92.5106976   4.6807652
  49.8114109  92.1543781   4.8910976  48.3748058  92.1720870   5.3683056
  48.1718737  66.4630644  -9.0558672  48.7158641  67.0760602  -9.5503717
  47.5905582  67.0210223  -8.5391659  51.4947531  65.9226698  -9.7197350
  50.7043075  65.9050837 -10.2592851  51.2580886  66.4614992  -8.9648314
  46.2944796  64.1090411  -7.1929915  47.1635955  64.2831063  -7.5543280
  45.8151547  64.9284828  -7.3154186  50.6670395  67.5957897  -7.6017070
  50.2737341  67.0424096  -6.9269426  51.4836536  67.9068476  -7.2110553
  53.5838356  69.0115776 -10.0096814  54.3248070  69.6122929 -10.0892351
  53.8156279  68.2693414 -10.5678771  48.6118383  71.3859587 -10.6612407
  49.2390422  71.0036664 -10.0474883  47.7546302  71.1673789 -10.2956715
  51.8486440  70.7077493  -8.9998488  51.8974596  71.5839615  -9.3820718
  52.3908954  70.1654886  -9.5726844  52.9746254  72.1460558  -6.8118546
  52.8742981  73.0954915  -6.8806455  52.7567796  71.8178797  -7.6842476
  44.6085158  72.3701481 -12.6922056  45.2544022  71.8600435 -12.2034831
  44.4002309  73.1070163 -12.1178631  48.9482649  69.5169098  -8.5947042
  49.8114111  69.1605903  -8.3843717  48.3748060  69.1782993  -7.9071637
 121.0847807 121.0847807 121.0847807 109.4712190 109.4712190 109.4712190
